/*--------------------------------*- C++ -*----------------------------------*\
| =========                 |                                                 |
| \\      /  F ield         | OpenFOAM: The Open Source CFD Toolbox           |
|  \\    /   O peration     | Version:  2.3.1                                 |
|   \\  /    A nd           | Web:      www.OpenFOAM.org                      |
|    \\/     M anipulation  |                                                 |
\*---------------------------------------------------------------------------*/
FoamFile
{
    version     2.0;
    format      ascii;
    class       volScalarField;
    location    "20";
    object      Sed;
}
// * * * * * * * * * * * * * * * * * * * * * * * * * * * * * * * * * * * * * //

dimensions      [0 0 0 0 0 0 0];

internalField   nonuniform List<scalar> 
38262
(
3.91282e-14
2.01603e-15
9.7947e-17
4.58101e-18
2.12102e-19
1.009e-20
5.14921e-22
2.92213e-23
1.86589e-24
1.32065e-25
1.0082e-26
8.09539e-28
6.71561e-29
5.68918e-30
4.88519e-31
4.23062e-32
3.68195e-33
3.21194e-34
2.80291e-35
2.443e-36
2.12411e-37
1.84051e-38
1.58803e-39
1.36345e-40
1.16418e-41
9.88022e-43
8.33058e-44
6.97542e-45
5.79844e-46
4.78403e-47
3.91692e-48
3.18209e-49
2.56488e-50
2.05109e-51
1.62724e-52
1.28068e-53
9.99813e-55
7.74223e-56
1.71357e-13
1.08883e-14
6.7344e-16
4.13156e-17
2.56388e-18
1.6397e-19
1.09694e-20
7.73981e-22
5.76229e-23
4.50052e-24
3.65477e-25
3.05758e-26
2.61416e-27
2.26963e-28
1.99121e-29
1.75871e-30
1.55932e-31
1.38475e-32
1.22952e-33
1.08997e-34
9.63613e-36
8.4879e-37
7.44326e-38
6.49374e-39
5.63292e-40
4.85563e-41
4.15745e-42
3.53434e-43
2.98234e-44
2.49734e-45
2.07493e-46
1.71034e-47
1.39857e-48
1.13444e-49
9.12742e-51
7.28377e-52
5.76457e-53
4.52427e-54
3.59223e-13
2.69019e-14
2.00251e-15
1.49836e-16
1.13697e-17
8.80351e-19
6.97875e-20
5.66873e-21
4.71306e-22
4.00106e-23
3.45737e-24
3.03093e-25
2.68712e-26
2.4023e-27
2.16015e-28
1.94939e-29
1.76222e-30
1.59324e-31
1.43874e-32
1.29622e-33
1.164e-34
1.04101e-35
9.26561e-37
8.20242e-38
7.218e-39
6.31081e-40
5.47973e-41
4.72366e-42
4.04125e-43
3.43062e-44
2.88918e-45
2.4136e-46
1.99988e-47
1.64349e-48
1.33946e-49
1.08259e-50
8.67644e-52
6.89495e-53
5.47744e-13
4.62661e-14
3.91249e-15
3.32858e-16
2.85681e-17
2.4768e-18
2.17004e-19
1.92082e-20
1.71636e-21
1.54653e-22
1.4034e-23
1.28085e-24
1.17415e-25
1.07962e-26
9.94437e-28
9.16457e-29
8.44091e-30
7.76203e-31
7.11998e-32
6.50951e-33
5.92755e-34
5.37256e-35
4.8441e-36
4.34248e-37
3.86857e-38
3.42349e-39
3.00835e-40
2.62408e-41
2.2714e-42
1.95063e-43
1.66165e-44
1.40386e-45
1.17622e-46
9.77286e-48
8.05198e-49
6.57833e-50
5.32883e-51
4.27984e-52
7.06909e-13
6.40859e-14
5.8311e-15
5.33217e-16
4.90074e-17
4.52531e-18
4.19589e-19
3.90426e-20
3.64368e-21
3.40859e-22
3.19443e-23
2.99732e-24
2.81396e-25
2.64147e-26
2.47747e-27
2.32001e-28
2.16764e-29
2.01937e-30
1.87457e-31
1.73297e-32
1.59463e-33
1.45977e-34
1.32879e-35
1.20222e-36
1.08067e-37
9.64793e-39
8.55191e-40
7.52389e-41
6.56822e-42
5.68814e-43
4.88564e-44
4.16137e-45
3.51466e-46
2.94341e-47
2.44419e-48
2.01246e-49
1.6429e-50
1.32975e-51
7.44295e-14
7.00602e-15
6.62199e-16
6.27906e-17
5.96715e-18
5.67865e-19
5.40822e-20
5.15212e-21
4.90769e-22
4.67288e-23
4.44592e-24
4.22513e-25
4.00893e-26
3.79589e-27
3.58487e-28
3.37509e-29
3.16611e-30
2.95787e-31
2.75067e-32
2.54517e-33
2.34221e-34
2.14278e-35
1.94807e-36
1.75936e-37
1.57796e-38
1.40507e-39
1.24174e-40
1.08884e-41
9.47071e-43
8.16945e-44
6.98764e-45
5.92609e-46
4.98314e-47
4.15469e-48
3.43463e-49
2.81527e-50
2.28795e-51
7.44089e-14
7.00369e-15
6.61952e-16
6.27667e-17
5.96508e-18
5.67707e-19
5.40722e-20
5.15174e-21
4.90798e-22
4.67384e-23
4.44749e-24
4.2272e-25
4.01135e-26
3.79852e-27
3.5876e-28
3.37783e-29
3.16881e-30
2.96048e-31
2.75315e-32
2.54747e-33
2.34427e-34
2.1446e-35
1.94964e-36
1.76071e-37
1.57912e-38
1.40606e-39
1.24257e-40
1.08953e-41
9.4761e-43
8.17332e-44
6.99006e-45
5.92724e-46
4.98329e-47
4.15417e-48
3.43376e-49
2.81433e-50
2.28713e-51
6.40007e-14
5.82177e-15
5.3229e-16
4.89218e-17
4.51802e-18
4.19019e-19
3.90024e-20
3.64132e-21
3.40788e-22
3.19528e-23
2.99957e-24
2.81733e-25
2.64566e-26
2.48215e-27
2.32493e-28
2.17263e-29
2.02431e-30
1.87937e-31
1.73754e-32
1.59885e-33
1.46357e-34
1.33214e-35
1.20512e-36
1.08316e-37
9.66914e-39
8.5699e-40
7.53902e-41
6.58066e-42
5.69785e-43
4.89259e-44
4.1657e-45
3.5167e-46
2.94367e-47
2.44325e-48
2.0109e-49
1.6412e-50
1.32823e-51
1.06511e-52
4.61774e-14
3.90324e-15
3.31973e-16
2.84889e-17
2.47019e-18
2.16488e-19
1.91709e-20
1.71395e-21
1.54534e-22
1.40333e-23
1.28177e-24
1.17586e-25
1.0819e-26
9.97067e-28
9.19264e-29
8.46959e-30
7.79056e-31
7.14776e-32
6.53595e-33
5.95206e-34
5.39465e-35
4.86352e-36
4.35926e-37
3.88292e-38
3.43568e-39
3.01863e-40
2.63269e-41
2.27843e-42
1.95608e-43
1.66553e-44
1.40625e-45
1.17733e-46
9.77391e-48
8.04645e-49
6.56945e-50
5.31927e-51
4.27137e-52
3.40118e-53
2.68467e-14
1.9971e-15
1.49354e-16
1.13292e-17
8.77152e-19
6.95476e-20
5.65166e-21
4.70177e-22
3.99462e-23
3.45504e-24
3.03204e-25
2.69094e-26
2.40802e-27
2.16707e-28
1.95692e-29
1.76995e-30
1.60092e-31
1.44619e-32
1.30327e-33
1.1705e-34
1.04683e-35
9.31639e-37
8.24581e-38
7.25461e-39
6.34147e-40
5.50525e-41
4.74468e-42
4.05813e-43
3.44351e-44
2.8982e-45
2.41904e-46
2.00226e-47
1.64355e-48
1.33803e-49
1.08043e-50
8.65354e-52
6.8748e-53
5.41734e-54
1.08722e-14
6.7182e-16
4.11803e-17
2.55354e-18
1.63225e-19
1.09181e-20
7.7055e-22
5.74017e-23
4.48722e-24
3.64807e-25
3.05591e-26
2.61625e-27
2.27435e-28
1.99757e-29
1.76594e-30
1.56688e-31
1.39228e-32
1.23681e-33
1.09684e-34
9.69927e-36
8.54415e-37
7.49193e-38
6.53489e-39
5.66723e-40
4.88406e-41
4.1809e-42
3.55348e-43
2.99758e-44
2.50888e-45
2.08295e-46
1.71515e-47
1.40064e-48
1.13446e-49
9.11448e-51
7.2645e-52
5.7443e-53
4.50647e-54
3.5075e-55
2.01424e-15
9.77564e-17
4.56686e-18
2.1119e-19
1.00354e-20
5.11762e-22
2.90392e-23
1.85527e-24
1.31446e-25
1.00479e-26
8.08019e-28
6.71366e-29
5.69641e-30
4.89838e-31
4.24722e-32
3.70008e-33
3.23034e-34
2.82077e-35
2.4598e-36
2.13946e-37
1.85412e-38
1.59974e-39
1.37326e-40
1.17224e-41
9.94572e-43
8.38339e-44
7.01755e-45
5.83134e-46
4.80867e-47
3.93409e-48
3.19264e-49
2.56988e-50
2.05189e-51
1.62527e-52
1.27729e-53
9.96075e-55
7.70819e-56
5.9195e-57
1.39349e-13
7.96103e-15
4.34018e-16
2.31183e-17
1.23837e-18
6.88996e-20
4.09967e-21
2.65322e-22
1.86707e-23
1.40984e-24
1.12261e-25
9.28086e-27
7.87319e-28
6.79699e-29
5.9368e-30
5.22439e-31
4.61753e-32
4.08925e-33
3.62185e-34
3.20351e-35
2.82627e-36
2.4847e-37
2.17499e-38
1.89436e-39
1.64069e-40
1.41226e-41
1.20758e-42
1.02532e-43
8.64184e-45
7.2286e-46
5.99969e-47
4.94055e-48
4.03607e-49
3.27078e-50
2.62924e-51
2.09636e-52
1.65777e-53
1.3001e-54
7.44402e-13
5.33422e-14
3.7113e-15
2.54832e-16
1.75577e-17
1.23273e-18
8.92721e-20
6.71502e-21
5.25327e-22
4.26041e-23
3.56125e-24
3.04857e-25
2.65686e-26
2.34569e-27
2.08964e-28
1.87239e-29
1.68327e-30
1.5152e-31
1.36346e-32
1.22486e-33
1.09732e-34
9.79446e-36
8.70343e-37
7.69428e-38
6.76316e-39
5.90748e-40
5.12532e-41
4.41505e-42
3.77495e-43
3.20292e-44
2.69628e-45
2.25169e-46
1.86525e-47
1.53256e-48
1.24888e-49
1.00929e-50
8.08836e-52
6.42725e-53
1.76418e-12
1.47959e-13
1.2176e-14
9.93488e-16
8.11001e-17
6.67072e-18
5.55538e-19
4.69662e-20
4.03364e-21
3.5166e-22
3.10698e-23
2.77599e-24
2.50253e-25
2.27126e-26
2.07108e-27
1.89397e-28
1.7342e-29
1.58772e-30
1.45169e-31
1.32418e-32
1.20392e-33
1.09016e-34
9.82477e-36
8.80687e-37
7.84782e-38
6.9485e-39
6.11024e-40
5.33445e-41
4.62223e-42
3.9741e-43
3.38975e-44
2.86795e-45
2.4066e-46
2.00277e-47
1.6528e-48
1.35252e-49
1.0974e-50
8.82797e-52
2.86856e-12
2.68145e-13
2.46784e-14
2.25085e-15
2.04491e-16
1.85738e-17
1.69085e-18
1.54496e-19
1.41779e-20
1.30679e-21
1.20932e-22
1.12292e-23
1.04543e-24
9.7497e-26
9.1e-27
8.49263e-28
7.91785e-29
7.36843e-30
6.83922e-31
6.32687e-32
5.82955e-33
5.34664e-34
4.87844e-35
4.42596e-36
3.99077e-37
3.57473e-38
3.1798e-39
2.80786e-40
2.4606e-41
2.1394e-42
1.84517e-43
1.57837e-44
1.33893e-45
1.1263e-46
9.3945e-48
7.76943e-49
6.3705e-50
5.17846e-51
3.8083e-12
3.79472e-13
3.72757e-14
3.62551e-15
3.50276e-16
3.36931e-17
3.23173e-18
3.09407e-19
2.95863e-20
2.8266e-21
2.69837e-22
2.57385e-23
2.45261e-24
2.33401e-25
2.21733e-26
2.10191e-27
1.98719e-28
1.87279e-29
1.7585e-30
1.64432e-31
1.53042e-32
1.41715e-33
1.30497e-34
1.19448e-35
1.08637e-36
9.81397e-38
8.80299e-39
7.83785e-40
6.92499e-41
6.06998e-42
5.27726e-43
4.55004e-44
3.89011e-45
3.29777e-46
2.77189e-47
2.30998e-48
1.90854e-49
1.56325e-50
4.44764e-13
4.50351e-14
4.51269e-15
4.48574e-16
4.43106e-17
4.35498e-18
4.26233e-19
4.15679e-20
4.04122e-21
3.91779e-22
3.78802e-23
3.65291e-24
3.51301e-25
3.36862e-26
3.21987e-27
3.06692e-28
2.90998e-29
2.74938e-30
2.58566e-31
2.41953e-32
2.25186e-33
2.08369e-34
1.91619e-35
1.75069e-36
1.58856e-37
1.43116e-38
1.27977e-39
1.13556e-40
9.99559e-42
8.72634e-43
7.55462e-44
6.485e-45
5.51953e-46
4.65778e-47
3.89701e-48
3.23256e-49
2.65832e-50
4.4472e-13
4.50278e-14
4.51174e-15
4.48472e-16
4.43011e-17
4.35425e-18
4.26189e-19
4.15671e-20
4.04156e-21
3.91856e-22
3.78921e-23
3.65445e-24
3.51482e-25
3.3706e-26
3.22195e-27
3.06904e-28
2.9121e-29
2.75146e-30
2.58766e-31
2.4214e-32
2.25358e-33
2.08523e-34
1.91755e-35
1.75188e-36
1.58959e-37
1.43205e-38
1.28053e-39
1.13619e-40
1.00005e-41
8.72994e-43
7.55693e-44
6.48616e-45
5.51979e-46
4.65741e-47
3.89629e-48
3.23175e-49
2.65759e-50
3.7909e-13
3.72303e-14
3.62078e-15
3.49821e-16
3.36529e-17
3.2285e-18
3.09177e-19
2.95735e-20
2.82636e-21
2.69916e-22
2.5756e-23
2.45517e-24
2.33718e-25
2.22092e-26
2.10573e-27
1.99113e-28
1.87674e-29
1.76239e-30
1.64806e-31
1.53394e-32
1.42036e-33
1.30785e-34
1.19702e-35
1.08859e-36
9.83316e-38
8.81945e-39
7.85179e-40
6.9365e-41
6.07902e-42
5.28381e-43
4.55421e-44
3.89218e-45
3.29819e-46
2.77117e-47
2.30864e-48
1.90702e-49
1.56188e-50
1.26707e-51
2.67749e-13
2.46331e-14
2.24625e-15
2.04058e-16
1.85361e-17
1.68781e-18
1.54271e-19
1.41634e-20
1.30614e-21
1.20943e-22
1.12373e-23
1.04681e-24
9.76792e-26
9.12113e-27
8.51544e-28
7.94146e-29
7.39221e-30
6.86264e-31
6.34942e-32
5.85072e-33
5.36601e-34
4.89575e-35
4.44119e-36
4.004e-37
3.58613e-38
3.18953e-39
2.81606e-40
2.46734e-41
2.14466e-42
1.84895e-43
1.58075e-44
1.34008e-45
1.12649e-46
9.38984e-48
7.76128e-49
6.36142e-50
5.17027e-51
4.16622e-52
1.47723e-13
1.21501e-14
9.90982e-16
8.08755e-17
6.65188e-18
5.54056e-19
4.6857e-20
4.02627e-21
3.51245e-22
3.10572e-23
2.77724e-24
2.50583e-25
2.27608e-26
2.07689e-27
1.90035e-28
1.74085e-29
1.59441e-30
1.45827e-31
1.33048e-32
1.20982e-33
1.09552e-34
9.8723e-36
8.84823e-37
7.88336e-38
6.97877e-39
6.13581e-40
5.35575e-41
4.63949e-42
3.9874e-43
3.39917e-44
2.87375e-45
2.40928e-46
2.00303e-47
1.65145e-48
1.35034e-49
1.09503e-50
8.80672e-52
7.02402e-53
5.32775e-14
3.7039e-15
2.54146e-16
1.75002e-17
1.22824e-18
8.89401e-20
6.69157e-21
5.23756e-22
4.25083e-23
3.55662e-24
3.04792e-25
2.65931e-26
2.35037e-27
2.09577e-28
1.87934e-29
1.69057e-30
1.52255e-31
1.37065e-32
1.23174e-33
1.10371e-34
9.85219e-36
8.75416e-37
7.73791e-38
6.80021e-39
5.93873e-40
5.15153e-41
4.43675e-42
3.79242e-43
3.21629e-44
2.70566e-45
2.25737e-46
1.86775e-47
1.53263e-48
1.24736e-49
1.00698e-50
8.06381e-52
6.40551e-53
5.04718e-54
7.95485e-15
4.33257e-16
2.30543e-17
1.23369e-18
6.85816e-20
4.07892e-21
2.63997e-22
1.85874e-23
1.40481e-24
1.11989e-25
9.27059e-27
7.87542e-28
6.80811e-29
5.95374e-30
5.24466e-31
4.63931e-32
4.11131e-33
3.64337e-34
3.22391e-35
2.84508e-36
2.50153e-37
2.18961e-38
1.90677e-39
1.65104e-40
1.42081e-41
1.2146e-42
1.03102e-43
8.68694e-45
7.26266e-46
6.02344e-47
4.95497e-48
4.04259e-49
3.27129e-50
2.62583e-51
2.09098e-52
1.65197e-53
1.29489e-54
1.00705e-55
2.79885e-13
1.72134e-14
1.03141e-15
6.17294e-17
3.78436e-18
2.42781e-19
1.6513e-20
1.19405e-21
9.12782e-23
7.30459e-24
6.05592e-25
5.15429e-26
4.47112e-27
3.93107e-28
3.48829e-29
3.11389e-30
2.78913e-31
2.50165e-32
2.24318e-33
2.00818e-34
1.79291e-35
1.59491e-36
1.41254e-37
1.2447e-38
1.09059e-39
9.49647e-41
8.21417e-42
7.05497e-43
6.01476e-44
5.08896e-45
4.27215e-46
3.55805e-47
2.93957e-48
2.40898e-49
1.95808e-50
1.57851e-51
1.26196e-52
1.00045e-53
1.96154e-12
1.51687e-13
1.14234e-14
8.50126e-16
6.34009e-17
4.79629e-18
3.7134e-19
2.95642e-20
2.42222e-21
2.03764e-22
1.75304e-23
1.5356e-24
1.36384e-25
1.22366e-26
1.10569e-27
1.00367e-28
9.13319e-30
8.31738e-31
7.56941e-32
6.87585e-33
6.22787e-34
5.61988e-35
5.04854e-36
4.512e-37
4.00942e-38
3.54058e-39
3.10561e-40
2.70476e-41
2.33822e-42
2.00588e-43
1.70728e-44
1.44151e-45
1.20725e-46
1.00278e-47
8.26055e-49
6.74795e-50
5.46586e-51
4.38972e-52
5.05633e-12
4.55264e-13
4.00766e-14
3.48126e-15
3.00797e-16
2.60198e-17
2.26377e-18
1.98657e-19
1.76067e-20
1.5761e-21
1.42391e-22
1.29663e-23
1.18831e-24
1.0943e-25
1.01107e-26
9.35913e-28
8.66842e-29
8.02395e-30
7.41533e-31
6.83542e-32
6.27965e-33
5.74548e-34
5.2318e-35
4.73863e-36
4.26677e-37
3.81752e-38
3.39244e-39
2.99318e-40
2.62123e-41
2.27782e-42
1.96373e-43
1.67928e-44
1.42426e-45
1.19793e-46
9.99119e-48
8.26257e-49
6.77474e-50
5.50706e-51
8.5688e-12
8.54208e-13
8.33266e-14
8.00453e-15
7.61161e-16
7.19388e-17
6.77788e-18
6.37912e-19
6.00512e-20
5.65811e-21
5.3372e-22
5.03974e-23
4.76235e-24
4.5014e-25
4.25342e-26
4.01529e-27
3.78443e-28
3.55882e-29
3.337e-30
3.11805e-31
2.90159e-32
2.68765e-33
2.47665e-34
2.26935e-35
2.06672e-36
1.86992e-37
1.68022e-38
1.49885e-39
1.327e-40
1.16571e-41
1.01585e-42
8.78026e-44
7.52612e-45
6.39701e-46
5.39129e-47
4.50493e-48
3.73195e-49
3.06482e-50
1.15868e-11
1.22686e-12
1.27146e-13
1.29584e-14
1.30379e-15
1.2989e-16
1.28423e-17
1.26226e-18
1.23491e-19
1.20362e-20
1.16942e-21
1.13303e-22
1.09492e-23
1.05535e-24
1.01446e-25
9.72301e-27
9.28909e-28
8.84306e-29
8.38543e-30
7.91716e-31
7.43975e-32
6.95526e-33
6.46629e-34
5.97597e-35
5.48793e-36
5.00613e-37
4.53464e-38
4.07752e-39
3.63862e-40
3.22149e-41
2.8292e-42
2.46422e-43
2.1284e-44
1.82282e-45
1.54783e-46
1.30307e-47
1.08756e-48
8.99811e-50
1.44716e-12
1.54284e-13
1.61654e-14
1.67e-15
1.70538e-16
1.72499e-17
1.73098e-18
1.72535e-19
1.70984e-20
1.68597e-21
1.65499e-22
1.61789e-23
1.57543e-24
1.52817e-25
1.47656e-26
1.42095e-27
1.36167e-28
1.29901e-29
1.23333e-30
1.16503e-31
1.09454e-32
1.02239e-33
9.49144e-35
8.75465e-36
8.02039e-37
7.29574e-38
6.58767e-39
5.90286e-40
5.24749e-41
4.62706e-42
4.04622e-43
3.50859e-44
3.01661e-45
2.5715e-46
2.17328e-47
1.82091e-48
1.51245e-49
1.44724e-12
1.54281e-13
1.61642e-14
1.66981e-15
1.70518e-16
1.72482e-17
1.73088e-18
1.72535e-19
1.70996e-20
1.68623e-21
1.6554e-22
1.61842e-23
1.57607e-24
1.52889e-25
1.47733e-26
1.42176e-27
1.36248e-28
1.29983e-29
1.23413e-30
1.16579e-31
1.09525e-32
1.02304e-33
9.4973e-35
8.75987e-36
8.02499e-37
7.29974e-38
6.5911e-39
5.90572e-40
5.24976e-41
4.62874e-42
4.04734e-43
3.5092e-44
3.01682e-45
2.57141e-46
2.17302e-47
1.82058e-48
1.51214e-49
1.22601e-12
1.27035e-13
1.29462e-14
1.30255e-15
1.29774e-16
1.28325e-17
1.26153e-18
1.23448e-19
1.20352e-20
1.16966e-21
1.13361e-22
1.0958e-23
1.05647e-24
1.01577e-25
9.73736e-27
9.3042e-28
8.85854e-29
8.40093e-30
7.93233e-31
7.45425e-32
6.96879e-33
6.47866e-34
5.9871e-35
5.49782e-36
5.01481e-37
4.54217e-38
4.08394e-39
3.64395e-40
3.22571e-41
2.83231e-42
2.46627e-43
2.12951e-44
1.82316e-45
1.54763e-46
1.30254e-47
1.08691e-48
8.99211e-50
7.36716e-51
8.5332e-13
8.32139e-14
7.99224e-15
7.59933e-16
7.1825e-17
6.76816e-18
6.37156e-19
6.00001e-20
5.65561e-21
5.33732e-22
5.04238e-23
4.76721e-24
4.50805e-25
4.26139e-26
4.02415e-27
3.79383e-28
3.56848e-29
3.34668e-30
3.12753e-31
2.91064e-32
2.69608e-33
2.48435e-34
2.27624e-35
2.07281e-36
1.87525e-37
1.68482e-38
1.50276e-39
1.33022e-40
1.16825e-41
1.0177e-42
8.79228e-44
7.53238e-45
6.39867e-46
5.38971e-47
4.50149e-48
3.72785e-49
3.061e-50
2.49162e-51
4.54753e-13
4.00126e-14
3.4745e-15
3.00144e-16
2.59611e-17
2.25887e-18
1.98275e-19
1.75796e-20
1.57448e-21
1.42333e-22
1.29699e-23
1.18948e-24
1.09612e-25
1.01334e-26
9.38491e-28
8.69597e-29
8.05232e-30
7.44373e-31
6.86314e-32
6.30603e-33
5.76992e-34
5.25393e-35
4.75829e-36
4.28398e-37
3.83243e-38
3.40521e-39
3.00393e-40
2.63002e-41
2.28466e-42
1.96867e-43
1.68242e-44
1.42582e-45
1.19825e-46
9.9858e-48
8.25241e-49
6.76304e-50
5.49622e-51
4.42909e-52
1.51554e-13
1.14053e-14
8.48261e-16
6.32304e-17
4.78187e-18
3.70196e-19
2.94783e-20
2.41615e-21
2.03375e-22
1.75104e-23
1.53522e-24
1.36478e-25
1.2256e-26
1.10833e-27
1.00675e-28
9.16642e-30
8.3516e-31
7.60357e-32
6.90906e-33
6.2593e-34
5.6488e-35
5.07446e-36
4.53476e-37
4.02915e-38
3.55753e-39
3.12006e-40
2.71688e-41
2.34808e-42
2.01351e-43
1.71271e-44
1.44488e-45
1.20883e-46
1.00296e-47
8.25285e-49
6.73526e-50
5.45189e-51
4.37704e-52
3.48527e-53
1.72013e-14
1.02971e-15
6.15712e-17
3.77147e-18
2.41804e-19
1.64423e-20
1.18909e-21
9.0942e-23
7.28305e-24
6.04381e-25
5.14965e-26
4.47233e-27
3.93662e-28
3.49682e-29
3.12425e-30
2.80044e-31
2.51331e-32
2.25476e-33
2.01934e-34
1.80337e-35
1.60443e-36
1.42097e-37
1.25198e-38
1.09679e-39
9.54883e-41
8.25805e-42
7.09121e-43
6.04387e-44
5.11121e-45
4.28784e-46
3.56769e-47
2.94402e-48
2.40941e-49
1.95584e-50
1.57488e-51
1.258e-52
9.96866e-54
7.8363e-55
4.39448e-13
2.8942e-14
1.89021e-15
1.25119e-16
8.54476e-18
6.08852e-19
4.54402e-20
3.54453e-21
2.8734e-22
2.40394e-23
2.06153e-24
1.80146e-25
1.59628e-26
1.4287e-27
1.28752e-28
1.16533e-29
1.05714e-30
9.59532e-32
8.70212e-33
7.87619e-34
7.10727e-35
6.3888e-36
5.71683e-37
5.08903e-38
4.50413e-39
3.96147e-40
3.46081e-41
3.00198e-42
2.58473e-43
2.20847e-44
1.87222e-45
1.57451e-46
1.31346e-47
1.08676e-48
8.91802e-50
7.25747e-51
5.85664e-52
4.68631e-53
3.65007e-12
2.99465e-13
2.40188e-14
1.90795e-15
1.51867e-16
1.22269e-17
1.00199e-18
8.38299e-20
7.16138e-21
6.23538e-22
5.51769e-23
4.94667e-24
4.47943e-25
4.08626e-26
3.74648e-27
3.44558e-28
3.17337e-29
2.92268e-30
2.68856e-31
2.46764e-32
2.25775e-33
2.0576e-34
1.86655e-35
1.68439e-36
1.51121e-37
1.34732e-38
1.19313e-39
1.04907e-40
9.15579e-42
7.92948e-43
6.8134e-44
5.80745e-45
4.9097e-46
4.11652e-47
3.42274e-48
2.82196e-49
2.30687e-50
1.86965e-51
1.01132e-11
9.62294e-13
8.94078e-14
8.17826e-15
7.41682e-16
6.70658e-17
6.07164e-18
5.51828e-19
5.04222e-20
4.634e-21
4.28247e-22
3.97678e-23
3.70727e-24
3.46576e-25
3.24558e-26
3.04142e-27
2.84913e-28
2.66562e-29
2.48865e-30
2.31667e-31
2.14878e-32
1.98455e-33
1.82397e-34
1.6673e-35
1.51509e-36
1.368e-37
1.22683e-38
1.09237e-39
9.65418e-41
8.4665e-42
7.3662e-43
6.35708e-44
5.4411e-45
4.6183e-46
3.88691e-47
3.24354e-48
2.68345e-49
2.20088e-50
1.78092e-11
1.86815e-12
1.91135e-13
1.91868e-14
1.8991e-15
1.86082e-16
1.81056e-17
1.7533e-18
1.69249e-19
1.63033e-20
1.5681e-21
1.50644e-22
1.44552e-23
1.38526e-24
1.32542e-25
1.26569e-26
1.20579e-27
1.14545e-28
1.0845e-29
1.02287e-30
9.60579e-32
8.97762e-33
8.34643e-34
7.71535e-35
7.08829e-36
6.46972e-37
5.8645e-38
5.27756e-39
4.71373e-40
4.1775e-41
3.67277e-42
3.20272e-43
2.76969e-44
2.3751e-45
2.01945e-46
1.70235e-47
1.42266e-48
1.17858e-49
2.45377e-11
2.72762e-12
2.95529e-13
3.1357e-14
3.27109e-15
3.36572e-16
3.4246e-17
3.45282e-18
3.45515e-19
3.43577e-20
3.39822e-21
3.34539e-22
3.27952e-23
3.20232e-24
3.11504e-25
3.01861e-26
2.91373e-27
2.80099e-28
2.68095e-29
2.5542e-30
2.42143e-31
2.28344e-32
2.14117e-33
1.99573e-34
1.84838e-35
1.70047e-36
1.55345e-37
1.40879e-38
1.26793e-39
1.13224e-40
1.00296e-41
8.81164e-43
7.67704e-44
6.6321e-45
5.68058e-46
4.82379e-47
4.0608e-48
3.38869e-49
3.24086e-12
3.60718e-13
3.92858e-14
4.20111e-15
4.42401e-16
4.59866e-17
4.72781e-18
4.815e-19
4.86413e-20
4.87913e-21
4.86369e-22
4.82112e-23
4.75423e-24
4.66537e-25
4.55653e-26
4.42935e-27
4.28532e-28
4.12578e-29
3.95209e-30
3.76569e-31
3.56812e-32
3.36111e-33
3.14658e-34
2.92668e-35
2.7037e-36
2.48006e-37
2.2582e-38
2.04053e-39
1.82937e-40
1.62684e-41
1.43483e-42
1.25489e-43
1.08823e-44
9.35657e-46
7.97561e-47
6.73972e-48
5.64575e-49
3.24138e-12
3.60745e-13
3.92862e-14
4.20098e-15
4.42379e-16
4.59845e-17
4.72772e-18
4.8151e-19
4.8645e-20
4.87981e-21
4.86472e-22
4.82247e-23
4.75586e-24
4.66724e-25
4.55856e-26
4.4315e-27
4.28754e-28
4.12802e-29
3.95432e-30
3.76784e-31
3.57016e-32
3.36301e-33
3.14832e-34
2.92824e-35
2.70509e-36
2.48128e-37
2.25925e-38
2.04141e-39
1.83007e-40
1.62737e-41
1.43518e-42
1.25509e-43
1.08831e-44
9.35644e-46
7.97493e-47
6.73881e-48
5.64485e-49
2.72629e-12
2.95338e-13
3.13348e-14
3.26876e-15
3.36346e-16
3.42261e-17
3.45131e-18
3.45427e-19
3.43563e-20
3.3989e-21
3.34689e-22
3.28179e-23
3.20526e-24
3.11851e-25
3.02247e-26
2.91786e-27
2.80528e-28
2.6853e-29
2.55851e-30
2.4256e-31
2.28738e-32
2.14483e-33
1.99907e-34
1.85138e-35
1.70313e-36
1.55578e-37
1.41079e-38
1.26959e-39
1.13356e-40
1.00394e-41
8.81816e-43
7.68066e-44
6.63335e-45
5.68012e-46
4.82229e-47
4.05888e-48
3.38688e-49
2.79837e-50
1.86672e-12
1.90935e-13
1.91637e-14
1.89668e-15
1.85849e-16
1.80849e-17
1.75164e-18
1.69135e-19
1.62979e-20
1.5682e-21
1.50716e-22
1.44682e-23
1.38705e-24
1.32759e-25
1.26815e-26
1.20843e-27
1.1482e-28
1.0873e-29
1.02564e-30
9.63262e-32
9.00295e-33
8.36984e-34
7.73662e-35
7.10734e-36
6.48656e-37
5.87915e-38
5.29005e-39
4.72406e-40
4.18564e-41
3.67873e-42
3.20661e-43
2.77175e-44
2.37569e-45
2.01899e-46
1.70128e-47
1.42136e-48
1.17735e-49
9.66675e-51
9.61484e-13
8.92942e-14
8.16539e-15
7.40371e-16
6.69423e-17
6.06086e-18
5.50961e-19
5.03594e-20
4.63024e-21
4.28124e-22
3.97796e-23
3.7106e-24
3.47087e-25
3.25206e-26
3.04886e-27
2.8572e-28
2.67405e-29
2.49719e-30
2.32511e-31
2.1569e-32
1.99218e-33
1.83097e-34
1.67361e-35
1.52069e-36
1.37291e-37
1.23106e-38
1.09596e-39
9.68358e-41
8.48943e-42
7.38275e-43
6.36764e-44
5.4464e-45
4.61942e-46
3.88512e-47
3.24009e-48
2.67943e-49
2.19712e-50
1.78629e-51
2.99253e-13
2.39863e-14
1.90435e-15
1.51518e-16
1.21958e-17
9.99395e-19
8.36275e-20
7.14666e-21
6.22585e-22
5.51295e-23
4.94621e-24
4.48263e-25
4.09238e-26
3.75474e-27
3.45527e-28
3.18392e-29
2.93368e-30
2.69966e-31
2.47855e-32
2.26818e-33
2.06732e-34
1.87537e-35
1.69224e-36
1.5181e-37
1.35331e-38
1.19827e-39
1.05341e-40
9.19116e-42
7.95679e-43
6.83277e-44
5.81935e-45
4.91511e-46
4.11685e-47
3.41963e-48
2.81704e-49
2.3015e-50
1.86478e-51
1.49838e-52
2.89216e-14
1.88718e-15
1.24815e-16
8.51803e-18
6.06672e-19
4.52718e-20
3.53205e-21
2.86457e-22
2.39814e-23
2.05829e-24
1.80037e-25
1.59695e-26
1.43072e-27
1.2905e-28
1.16894e-29
1.06109e-30
9.63651e-32
8.74348e-33
7.91651e-34
7.14547e-35
6.42397e-36
5.74833e-37
5.11664e-38
4.52798e-39
3.98189e-40
3.47812e-41
3.0164e-42
2.59635e-43
2.21735e-44
1.87844e-45
1.57828e-46
1.31511e-47
1.08678e-48
8.9073e-50
7.2412e-51
5.83919e-52
4.6706e-53
3.70561e-54
5.86847e-13
4.12547e-14
2.91278e-15
2.09986e-16
1.56225e-17
1.20493e-18
9.63075e-20
7.94984e-21
6.7446e-22
5.8511e-23
5.16584e-24
4.62246e-25
4.17775e-26
3.80285e-27
3.47804e-28
3.18979e-29
2.92866e-30
2.68813e-31
2.46371e-32
2.2524e-33
2.0523e-34
1.86227e-35
1.6818e-36
1.51069e-37
1.349e-38
1.19694e-39
1.05481e-40
9.22895e-42
8.01465e-43
6.90661e-44
5.90485e-45
5.00788e-46
4.21263e-47
3.51456e-48
2.90785e-49
2.38575e-50
1.94084e-51
1.56546e-52
5.5535e-12
4.78645e-13
4.04702e-14
3.39545e-15
2.85414e-16
2.42089e-17
2.08106e-18
1.81626e-19
1.60897e-20
1.44456e-21
1.31165e-22
1.20171e-23
1.10851e-24
1.02751e-25
9.55427e-27
8.8985e-28
8.29039e-29
7.71745e-30
7.17095e-31
6.64504e-32
6.13615e-33
5.64247e-34
5.16354e-35
4.69986e-36
4.25259e-37
3.82337e-38
3.41414e-39
3.02693e-40
2.66365e-41
2.32594e-42
2.015e-43
1.73155e-44
1.47579e-45
1.24738e-46
1.04548e-47
8.68845e-49
7.15877e-50
5.84752e-51
1.64358e-11
1.63587e-12
1.58904e-13
1.5176e-14
1.43389e-15
1.347e-16
1.26272e-17
1.18412e-18
1.11242e-19
1.04761e-20
9.8904e-22
9.35787e-23
8.86843e-24
8.41256e-25
7.98177e-26
7.56885e-27
7.16797e-28
6.77463e-29
6.38557e-30
5.99873e-31
5.61304e-32
5.22842e-33
4.84556e-34
4.46582e-35
4.0911e-36
3.7237e-37
3.36617e-38
3.02116e-39
2.69128e-40
2.37892e-41
2.08614e-42
1.81458e-43
1.56535e-44
1.33905e-45
1.13579e-46
9.55145e-48
7.96311e-49
6.58115e-50
3.00061e-11
3.28146e-12
3.4929e-13
3.63903e-14
3.72817e-15
3.77035e-16
3.77539e-17
3.75187e-18
3.70678e-19
3.64545e-20
3.57179e-21
3.48851e-22
3.3974e-23
3.29953e-24
3.1955e-25
3.0856e-26
2.96994e-27
2.8486e-28
2.7217e-29
2.58946e-30
2.45225e-31
2.31065e-32
2.1654e-33
2.01745e-34
1.86792e-35
1.7181e-36
1.56936e-37
1.42312e-38
1.28081e-39
1.14379e-40
1.01328e-41
8.90356e-43
7.75853e-44
6.70389e-45
5.74332e-46
4.87812e-47
4.10737e-48
3.42817e-49
4.21251e-11
4.87322e-12
5.47958e-13
6.0165e-14
6.476e-15
6.85593e-16
7.15815e-17
7.38707e-18
7.54853e-19
7.64895e-20
7.69471e-21
7.69173e-22
7.64521e-23
7.55961e-24
7.43855e-25
7.28505e-26
7.10158e-27
6.89029e-28
6.65315e-29
6.3921e-30
6.10918e-31
5.80667e-32
5.48715e-33
5.15352e-34
4.80908e-35
4.45744e-36
4.10246e-37
3.74813e-38
3.39847e-39
3.05737e-40
2.72846e-41
2.415e-42
2.11975e-43
1.84489e-44
1.59196e-45
1.36189e-46
1.15495e-47
9.70888e-49
5.83472e-12
6.73253e-13
7.57824e-14
8.35092e-15
9.03651e-16
9.62706e-17
1.01194e-17
1.05142e-18
1.08148e-19
1.10262e-20
1.11543e-21
1.12055e-22
1.11855e-23
1.10999e-24
1.09536e-25
1.07511e-26
1.04963e-27
1.0193e-28
9.84484e-30
9.45562e-31
9.02935e-32
8.57044e-33
8.08377e-34
7.57478e-35
7.04937e-36
6.51381e-37
5.9746e-38
5.43829e-39
4.91128e-40
4.39966e-41
3.90896e-42
3.44399e-43
3.00866e-44
2.60591e-45
2.23764e-46
1.90475e-47
1.60722e-48
5.83605e-12
6.73346e-13
7.57877e-14
8.35111e-15
9.0365e-16
9.62702e-17
1.01195e-17
1.05147e-18
1.08157e-19
1.10277e-20
1.11565e-21
1.12082e-22
1.11889e-23
1.11038e-24
1.0958e-25
1.07557e-26
1.05011e-27
1.01979e-28
9.84979e-30
9.46047e-31
9.034e-32
8.57481e-33
8.08782e-34
7.57848e-35
7.05269e-36
6.51674e-37
5.97713e-38
5.4404e-39
4.91297e-40
4.40092e-41
3.90982e-42
3.44448e-43
3.00886e-44
2.6059e-45
2.23749e-46
1.90455e-47
1.60701e-48
4.87152e-12
5.47688e-13
6.01322e-14
6.47245e-15
6.8524e-16
7.15499e-17
7.38467e-18
7.54723e-19
7.64902e-20
7.69634e-21
7.69499e-22
7.65007e-23
7.56588e-24
7.44602e-25
7.29345e-26
7.11067e-27
6.89984e-28
6.66293e-29
6.40188e-30
6.11875e-31
5.81583e-32
5.49574e-33
5.16144e-34
4.81628e-35
4.46388e-36
4.10812e-37
3.753e-38
3.40252e-39
3.06058e-40
2.73083e-41
2.41658e-42
2.12062e-43
1.84519e-44
1.59185e-45
1.36152e-46
1.15448e-47
9.70446e-49
8.07648e-50
3.27952e-12
3.48995e-13
3.63547e-14
3.72431e-15
3.76649e-16
3.77188e-17
3.74903e-18
3.70485e-19
3.64463e-20
3.5722e-21
3.49018e-22
3.40027e-23
3.30346e-24
3.20031e-25
3.09109e-26
2.97592e-27
2.8549e-28
2.72816e-29
2.59592e-30
2.45856e-31
2.31667e-32
2.17102e-33
2.02261e-34
1.87259e-35
1.72225e-36
1.57299e-37
1.42622e-38
1.28337e-39
1.1458e-40
1.01475e-41
8.91309e-43
7.76352e-44
6.70522e-45
5.74206e-46
4.87534e-47
4.104e-48
3.42501e-49
2.83306e-50
1.63477e-12
1.58735e-13
1.51558e-14
1.43174e-15
1.34491e-16
1.26084e-17
1.18258e-18
1.1113e-19
1.04696e-20
9.88887e-22
9.36125e-23
8.87636e-24
8.42438e-25
7.9967e-26
7.58612e-27
7.18687e-28
6.79455e-29
6.40597e-30
6.01905e-31
5.63279e-32
5.24714e-33
4.86292e-34
4.48162e-35
4.10525e-36
3.73619e-37
3.37701e-38
3.03035e-39
2.6988e-40
2.38477e-41
2.09034e-42
1.81722e-43
1.56663e-44
1.33926e-45
1.13525e-46
9.5418e-48
7.95205e-49
6.57091e-50
5.383e-51
4.78341e-13
4.04206e-14
3.3897e-15
2.84834e-16
2.4155e-17
2.07643e-18
1.81255e-19
1.60624e-20
1.44282e-21
1.31087e-22
1.20183e-23
1.10943e-24
1.02909e-25
9.57504e-27
8.92276e-28
8.31689e-29
7.74522e-30
7.19919e-31
6.673e-32
6.1631e-33
5.66777e-34
5.18671e-35
4.72066e-36
4.271e-37
3.83948e-38
3.42803e-39
3.03863e-40
2.67315e-41
2.33321e-42
2.02007e-43
1.73457e-44
1.47704e-45
1.24725e-46
1.04443e-47
8.67326e-49
7.14265e-50
5.83314e-51
4.7237e-52
4.12192e-14
2.90771e-15
2.09465e-16
1.55753e-17
1.20096e-18
9.59928e-20
7.92604e-21
6.72767e-22
5.84031e-23
5.16055e-24
4.62198e-25
4.18115e-26
3.80912e-27
3.48641e-28
3.19964e-29
2.93943e-30
2.69936e-31
2.47505e-32
2.26352e-33
2.06289e-34
1.8721e-35
1.69067e-36
1.51853e-37
1.35584e-38
1.20285e-39
1.05984e-40
9.27094e-42
8.04836e-43
6.9321e-44
5.92239e-45
5.01807e-46
4.21654e-47
3.51365e-48
2.90381e-49
2.38018e-50
1.93507e-51
1.56036e-52
1.24789e-53
6.98964e-13
5.22377e-14
3.95072e-15
3.05831e-16
2.43633e-17
1.99881e-18
1.6852e-19
1.45487e-20
1.28101e-21
1.14591e-22
1.03777e-23
9.48634e-25
8.73051e-26
8.07244e-27
7.48541e-28
6.95028e-29
6.4534e-30
5.98519e-31
5.53929e-32
5.11129e-33
4.69863e-34
4.30016e-35
3.91575e-36
3.54591e-37
3.19158e-38
2.85397e-39
2.53446e-40
2.23442e-41
1.95509e-42
1.69741e-43
1.46199e-44
1.24903e-45
1.05835e-46
8.89346e-48
7.41084e-49
6.12333e-50
5.01642e-51
4.07423e-52
7.33305e-12
6.59496e-13
5.83561e-14
5.13112e-15
4.51836e-16
4.00596e-17
3.58645e-18
3.24538e-19
2.96697e-20
2.73691e-21
2.54335e-22
2.37699e-23
2.23068e-24
2.09904e-25
1.97799e-26
1.86443e-27
1.75607e-28
1.65126e-29
1.54884e-30
1.44808e-31
1.34859e-32
1.25027e-33
1.15326e-34
1.05785e-35
9.64464e-37
8.73618e-38
7.85885e-39
7.01862e-40
6.22119e-41
5.47164e-42
4.77414e-43
4.13177e-44
3.54637e-45
3.0185e-46
2.54753e-47
2.13171e-48
1.76841e-49
1.45428e-50
2.30724e-11
2.38461e-12
2.4049e-13
2.38251e-14
2.33155e-15
2.2638e-16
2.18787e-17
2.10943e-18
2.03174e-19
1.95637e-20
1.88378e-21
1.81378e-22
1.7458e-23
1.67917e-24
1.61315e-25
1.54709e-26
1.48041e-27
1.41267e-28
1.34358e-29
1.27296e-30
1.20084e-31
1.12734e-32
1.05274e-33
9.77454e-35
9.01965e-36
8.26858e-37
7.52771e-38
6.80369e-39
6.10312e-40
5.43222e-41
4.79657e-42
4.20083e-43
3.64861e-44
3.14236e-45
2.68336e-46
2.27172e-47
1.90657e-48
1.58611e-49
4.36091e-11
4.93792e-12
5.43465e-13
5.84435e-14
6.16823e-15
6.41276e-16
6.58671e-17
6.6995e-18
6.76005e-19
6.7762e-20
6.7545e-21
6.70019e-22
6.61728e-23
6.5088e-24
6.37693e-25
6.22325e-26
6.04896e-27
5.85504e-28
5.64243e-29
5.41217e-30
5.16548e-31
4.90389e-32
4.62924e-33
4.34375e-34
4.05001e-35
3.7509e-36
3.44958e-37
3.14933e-38
2.85349e-39
2.5653e-40
2.28778e-41
2.02361e-42
1.77506e-43
1.5439e-44
1.33138e-45
1.13821e-46
9.64604e-48
8.103e-49
6.23841e-11
7.46133e-12
8.65687e-13
9.7874e-14
1.08246e-14
1.17499e-15
1.25526e-16
1.32284e-17
1.37782e-18
1.42062e-19
1.45186e-20
1.47229e-21
1.48264e-22
1.48365e-23
1.47597e-24
1.46019e-25
1.43684e-26
1.40638e-27
1.36927e-28
1.32595e-29
1.27686e-30
1.2225e-31
1.16343e-32
1.10027e-33
1.03373e-34
9.6458e-36
8.93663e-37
8.21861e-38
7.50075e-39