/*--------------------------------*- C++ -*----------------------------------*\
| =========                 |                                                 |
| \\      /  F ield         | OpenFOAM: The Open Source CFD Toolbox           |
|  \\    /   O peration     | Version:  2.3.1                                 |
|   \\  /    A nd           | Web:      www.OpenFOAM.org                      |
|    \\/     M anipulation  |                                                 |
\*---------------------------------------------------------------------------*/
FoamFile
{
    version     2.0;
    format      ascii;
    class       volScalarField;
    location    "20";
    object      Sed_0;
}
// * * * * * * * * * * * * * * * * * * * * * * * * * * * * * * * * * * * * * //

dimensions      [0 0 0 0 0 0 0];

internalField   nonuniform List<scalar> 
38262
(
3.89048e-14
2.00417e-15
9.73568e-17
4.55294e-18
2.10794e-19
1.00281e-20
5.11833e-22
2.90518e-23
1.85545e-24
1.31349e-25
1.00285e-26
8.05308e-28
6.68082e-29
5.65983e-30
4.86004e-31
4.20882e-32
3.66294e-33
3.1953e-34
2.78831e-35
2.43021e-36
2.11291e-37
1.83073e-38
1.57952e-39
1.35609e-40
1.15783e-41
9.82587e-43
8.28431e-44
6.93629e-45
5.76558e-46
4.75664e-47
3.89425e-48
3.16348e-49
2.54971e-50
2.03883e-51
1.6174e-52
1.27285e-53
9.93636e-55
7.69386e-56
1.70419e-13
1.08276e-14
6.69635e-16
4.10808e-17
2.54934e-18
1.63048e-19
1.09086e-20
7.69767e-22
5.73148e-23
4.47683e-24
3.63577e-25
3.04182e-26
2.60077e-27
2.25804e-28
1.98105e-29
1.74973e-30
1.55134e-31
1.37764e-32
1.22318e-33
1.08431e-34
9.58584e-36
8.44328e-37
7.40383e-38
6.45905e-39
5.60256e-40
4.82922e-41
4.13463e-42
3.51475e-43
2.96564e-44
2.48321e-45
2.06306e-46
1.70045e-47
1.3904e-48
1.12774e-49
9.07291e-51
7.23979e-52
5.72937e-53
4.49634e-54
3.57348e-13
2.676e-14
1.9919e-15
1.49042e-16
1.13095e-17
8.75721e-19
6.9423e-20
5.63934e-21
4.68881e-22
3.9806e-23
3.43978e-24
3.01557e-25
2.67354e-26
2.39016e-27
2.14923e-28
1.93953e-29
1.75328e-30
1.58512e-31
1.43138e-32
1.28955e-33
1.15797e-34
1.03558e-35
9.21695e-37
8.159e-38
7.17946e-39
6.27682e-40
5.44994e-41
4.69773e-42
4.01884e-43
3.4114e-44
2.87282e-45
2.39979e-46
1.98832e-47
1.63388e-48
1.33154e-49
1.07613e-50
8.62402e-52
6.85283e-53
5.45003e-13
4.60331e-14
3.89274e-15
3.31176e-16
2.84238e-17
2.46431e-18
2.15911e-19
1.91117e-20
1.70775e-21
1.53878e-22
1.39638e-23
1.27445e-24
1.16827e-25
1.07421e-26
9.8945e-28
9.11849e-29
8.39834e-30
7.72272e-31
7.08375e-32
6.47621e-33
5.89704e-34
5.34472e-35
4.81881e-36
4.31963e-37
3.84804e-38
3.40517e-39
2.99209e-40
2.60977e-41
2.25889e-42
1.93978e-43
1.65231e-44
1.39588e-45
1.16947e-46
9.71615e-48
8.00475e-49
6.53931e-50
5.29688e-51
4.2539e-52
7.03461e-13
6.3772e-14
5.80247e-15
5.30593e-16
4.8766e-17
4.503e-18
4.17519e-19
3.88498e-20
3.62566e-21
3.39173e-22
3.17861e-23
2.98246e-24
2.79998e-25
2.62832e-26
2.4651e-27
2.30839e-28
2.15674e-29
2.00917e-30
1.86505e-31
1.72413e-32
1.58644e-33
1.45222e-34
1.32187e-35
1.19591e-36
1.07495e-37
9.59644e-39
8.50585e-40
7.48299e-41
6.53217e-42
5.65661e-43
4.85828e-44
4.13782e-45
3.49456e-46
2.9264e-47
2.42991e-48
2.00057e-49
1.63309e-50
1.32172e-51
7.40696e-14
6.97205e-15
6.58981e-16
6.24848e-17
5.93801e-18
5.65087e-19
5.38171e-20
5.12681e-21
4.88353e-22
4.64984e-23
4.42395e-24
4.2042e-25
3.98901e-26
3.77697e-27
3.56695e-28
3.35814e-29
3.15014e-30
2.94287e-31
2.73665e-32
2.53212e-33
2.33011e-34
2.13164e-35
1.93785e-36
1.75006e-37
1.56954e-38
1.39751e-39
1.23499e-40
1.08287e-41
9.41828e-43
8.12376e-44
6.94816e-45
5.89226e-46
4.95438e-47
4.13046e-48
3.41438e-49
2.79849e-50
2.27416e-51
7.40491e-14
6.96974e-15
6.58735e-16
6.2461e-17
5.93596e-18
5.6493e-19
5.38071e-20
5.12644e-21
4.88383e-22
4.65079e-23
4.42551e-24
4.20626e-25
3.99142e-26
3.77959e-27
3.56966e-28
3.36087e-29
3.15282e-30
2.94547e-31
2.73912e-32
2.5344e-33
2.33217e-34
2.13344e-35
1.93942e-36
1.75141e-37
1.5707e-38
1.39849e-39
1.23582e-40
1.08355e-41
9.42364e-43
8.12761e-44
6.95056e-45
5.8934e-46
4.95453e-47
4.12994e-48
3.41351e-49
2.79755e-50
2.27335e-51
6.36872e-14
5.79318e-15
5.29671e-16
4.86808e-17
4.49574e-18
4.16951e-19
3.88097e-20
3.62332e-21
3.39102e-22
3.17946e-23
2.98469e-24
2.80334e-25
2.63249e-26
2.46976e-27
2.31329e-28
2.16171e-29
2.01409e-30
1.86983e-31
1.72867e-32
1.59065e-33
1.45601e-34
1.3252e-35
1.19879e-36
1.07743e-37
9.61754e-39
8.52374e-40
7.49804e-41
6.54453e-42
5.66626e-43
4.86519e-44
4.14212e-45
3.49659e-46
2.92665e-47
2.42897e-48
1.99902e-49
1.6314e-50
1.32022e-51
1.05861e-52
4.59449e-14
3.88353e-15
3.30295e-16
2.8345e-17
2.45773e-18
2.15398e-19
1.90745e-20
1.70535e-21
1.5376e-22
1.39631e-23
1.27536e-24
1.16998e-25
1.07648e-26
9.92067e-28
9.14642e-29
8.42687e-30
7.7511e-31
7.11138e-32
6.50251e-33
5.92142e-34
5.36669e-35
4.83813e-36
4.33632e-37
3.86232e-38
3.41728e-39
3.00232e-40
2.61833e-41
2.26588e-42
1.9452e-43
1.65616e-44
1.39826e-45
1.17057e-46
9.71719e-48
7.99925e-49
6.53049e-50
5.28737e-51
4.24548e-52
3.38033e-53
2.67052e-14
1.98651e-15
1.48562e-16
1.12693e-17
8.72539e-19
6.91844e-20
5.62236e-21
4.67757e-22
3.97419e-23
3.43747e-24
3.01668e-25
2.67733e-26
2.39586e-27
2.15612e-28
1.94701e-29
1.76097e-30
1.59276e-31
1.43879e-32
1.29657e-33
1.16444e-34
1.04137e-35
9.26746e-37
8.20216e-38
7.21587e-39
6.3073e-40
5.47531e-41
4.71863e-42
4.03562e-43
3.42422e-44
2.8818e-45
2.4052e-46
1.99068e-47
1.63394e-48
1.33012e-49
1.07397e-50
8.60126e-52
6.83281e-53
5.38388e-54
1.08115e-14
6.68023e-16
4.09463e-17
2.53906e-18
1.62307e-19
1.08576e-20
7.66356e-22
5.70948e-23
4.4636e-24
3.62911e-25
3.04017e-26
2.60285e-27
2.26273e-28
1.98738e-29
1.75692e-30
1.55886e-31
1.38514e-32
1.23043e-33
1.09115e-34
9.64864e-36
8.49923e-37
7.45224e-38
6.49998e-39
5.63669e-40
4.85749e-41
4.15794e-42
3.53378e-43
2.98078e-44
2.49468e-45
2.07104e-46
1.70523e-47
1.39246e-48
1.12775e-49
9.06005e-51
7.22064e-52
5.70923e-53
4.47865e-54
3.48561e-55
2.00239e-15
9.71671e-17
4.53887e-18
2.09887e-19
9.97386e-21
5.08694e-22
2.88708e-23
1.84489e-24
1.30734e-25
9.99468e-27
8.03798e-28
6.67888e-29
5.66703e-30
4.87316e-31
4.22534e-32
3.68097e-33
3.2136e-34
2.80608e-35
2.44692e-36
2.12817e-37
1.84427e-38
1.59117e-39
1.36584e-40
1.16585e-41
9.89101e-43
8.33683e-44
6.97818e-45
5.79828e-46
4.78113e-47
3.91132e-48
3.17396e-49
2.55468e-50
2.03962e-51
1.61545e-52
1.26949e-53
9.8992e-55
7.66003e-56
5.88211e-57
1.38573e-13
7.91546e-15
4.31482e-16
2.29817e-17
1.23104e-18
6.84966e-20
4.0762e-21
2.63843e-22
1.85693e-23
1.40236e-24
1.11675e-25
9.23293e-27
7.83282e-28
6.76227e-29
5.90653e-30
5.19773e-31
4.59392e-32
4.06827e-33
3.60318e-34
3.18691e-35
2.81153e-36
2.47165e-37
2.16348e-38
1.88425e-39
1.63186e-40
1.40458e-41
1.20095e-42
1.01964e-43
8.59349e-45
7.18774e-46
5.96541e-47
4.91203e-48
4.01251e-49
3.25148e-50
2.61356e-51
2.08372e-52
1.64766e-53
1.29208e-54
7.40496e-13
5.30567e-14
3.69116e-15
2.53439e-16
1.74616e-17
1.22602e-18
8.87912e-20
6.6793e-21
5.22569e-22
4.2383e-23
3.54295e-24
3.03302e-25
2.64337e-26
2.33382e-27
2.07907e-28
1.86291e-29
1.67473e-30
1.50749e-31
1.35649e-32
1.21857e-33
1.09165e-34
9.74349e-36
8.65781e-37
7.65363e-38
6.72712e-39
5.87572e-40
5.0975e-41
4.39086e-42
3.75406e-43
3.18501e-44
2.68105e-45
2.23884e-46
1.85449e-47
1.52362e-48
1.24152e-49
1.00327e-50
8.0396e-52
6.38807e-53
1.7554e-12
1.47211e-13
1.21139e-14
9.8839e-16
8.06831e-17
6.63646e-18
5.52693e-19
4.67267e-20
4.01316e-21
3.49882e-22
3.09133e-23
2.76205e-24
2.48998e-25
2.25988e-26
2.06069e-27
1.88446e-28
1.72547e-29
1.5797e-30
1.44433e-31
1.31743e-32
1.19775e-33
1.08454e-34
9.7737e-36
8.76074e-37
7.80637e-38
6.91148e-39
6.0774e-40
5.3055e-41
4.5969e-42
3.9521e-43
3.37079e-44
2.85174e-45
2.39286e-46
1.9912e-47
1.64315e-48
1.34454e-49
1.09085e-50
8.77471e-52
2.85485e-12
2.66848e-13
2.45579e-14
2.23979e-15
2.03482e-16
1.8482e-17
1.68248e-18
1.53731e-19
1.41077e-20
1.30032e-21
1.20333e-22
1.11736e-23
1.04024e-24
9.70128e-26
9.05472e-27
8.45027e-28
7.87823e-29
7.33142e-30
6.80472e-31
6.29479e-32
5.79982e-33
5.3192e-34
4.85322e-35
4.40291e-36
3.96982e-37
3.55581e-38
3.16281e-39
2.79272e-40
2.44721e-41
2.12764e-42
1.83493e-43
1.56952e-44
1.33134e-45
1.11985e-46
9.34009e-48
7.72393e-49
6.33279e-50
5.14747e-51
3.79055e-12
3.77683e-13
3.70984e-14
3.60814e-15
3.48588e-16
3.353e-17
3.21603e-18
3.07899e-19
2.94419e-20
2.81277e-21
2.68514e-22
2.5612e-23
2.44053e-24
2.32248e-25
2.20635e-26
2.09147e-27
1.97728e-28
1.86342e-29
1.74966e-30
1.63601e-31
1.52264e-32
1.4099e-33
1.29824e-34
1.18828e-35
1.08069e-36
9.76219e-38
8.75613e-39
7.79574e-40
6.88744e-41
6.03674e-42
5.24808e-43
4.52462e-44
3.86814e-45
3.27896e-46
2.7559e-47
2.29652e-48
1.89729e-49
1.55394e-50
4.42693e-13
4.48234e-14
4.49131e-15
4.46436e-16
4.40982e-17
4.33401e-18
4.24172e-19
4.13662e-20
4.02155e-21
3.89866e-22
3.76947e-23
3.63497e-24
3.49571e-25
3.35197e-26
3.2039e-27
3.05165e-28
2.89543e-29
2.73557e-30
2.5726e-31
2.40723e-32
2.24035e-33
2.07296e-34
1.90625e-35
1.74153e-36
1.58018e-37
1.42355e-38
1.27291e-39
1.12941e-40
9.94094e-42
8.67815e-43
7.51248e-44
6.44845e-45
5.48809e-46
4.63096e-47
3.87433e-48
3.21355e-49
2.64251e-50
4.42649e-13
4.48161e-14
4.49037e-15
4.46334e-16
4.40888e-17
4.33328e-18
4.24129e-19
4.13655e-20
4.02189e-21
3.89943e-22
3.77065e-23
3.6365e-24
3.49751e-25
3.35395e-26
3.20598e-27
3.05377e-28
2.89754e-29
2.73764e-30
2.57459e-31
2.4091e-32
2.24206e-33
2.07449e-34
1.90761e-35
1.74272e-36
1.58121e-37
1.42444e-38
1.27366e-39
1.13004e-40
9.94585e-42
8.68173e-43
7.51478e-44
6.44961e-45
5.48835e-46
4.6306e-47
3.87362e-48
3.21274e-49
2.64179e-50
3.77303e-13
3.70532e-14
3.60343e-15
3.48135e-16
3.34901e-17
3.21282e-18
3.07671e-19
2.94291e-20
2.81253e-21
2.68593e-22
2.56295e-23
2.44308e-24
2.32564e-25
2.20992e-26
2.09527e-27
1.9812e-28
1.86735e-29
1.75353e-30
1.63973e-31
1.52613e-32
1.41309e-33
1.30111e-34
1.1908e-35
1.08289e-36
9.78128e-38
8.77251e-39
7.80961e-40
6.89888e-41
6.04573e-42
5.25459e-43
4.52877e-44
3.87021e-45
3.27938e-46
2.75519e-47
2.29518e-48
1.89578e-49
1.55257e-50
1.25944e-51
2.66454e-13
2.45128e-14
2.23521e-15
2.03051e-16
1.84444e-17
1.67945e-18
1.53507e-19
1.40933e-20
1.29967e-21
1.20344e-22
1.11816e-23
1.04162e-24
9.7194e-26
9.07574e-27
8.47296e-28
7.90173e-29
7.35508e-30
6.82802e-31
6.31722e-32
5.82088e-33
5.33846e-34
4.87045e-35
4.41806e-36
3.98299e-37
3.56714e-38
3.1725e-39
2.80088e-40
2.45391e-41
2.13287e-42
1.83869e-43
1.57188e-44
1.33249e-45
1.12004e-46
9.33546e-48
7.71583e-49
6.32376e-50
5.13933e-51
4.141e-52
1.46976e-13
1.2088e-14
9.85896e-16
8.04596e-17
6.61772e-18
5.51219e-19
4.6618e-20
4.00583e-21
3.4947e-22
3.09008e-23
2.76329e-24
2.49326e-25
2.26467e-26
2.06648e-27
1.89081e-28
1.73209e-29
1.58636e-30
1.45087e-31
1.3237e-32
1.20361e-33
1.08987e-34
9.82098e-36
8.80188e-37
7.84172e-38
6.94159e-39
6.10282e-40
5.32668e-41
4.61406e-42
3.96533e-43
3.38016e-44
2.85751e-45
2.39552e-46
1.99146e-47
1.64181e-48
1.34237e-49
1.0885e-50
8.75359e-52
6.98117e-53
5.29922e-14
3.68379e-15
2.52756e-16
1.74045e-17
1.22155e-18
8.8461e-20
6.65598e-21
5.21006e-22
4.22878e-23
3.53835e-24
3.03238e-25
2.64581e-26
2.33847e-27
2.08517e-28
1.86982e-29
1.68199e-30
1.5148e-31
1.36365e-32
1.22541e-33
1.09801e-34
9.80092e-36
8.70827e-37
7.69702e-38
6.76397e-39
5.9068e-40
5.12357e-41
4.41244e-42
3.77144e-43
3.1983e-44
2.69037e-45
2.24448e-46
1.85697e-47
1.52369e-48
1.24001e-49
1.00098e-50
8.01519e-52
6.36646e-53
5.01607e-54
7.9093e-15
4.30726e-16
2.29181e-17
1.2264e-18
6.81805e-20
4.05557e-21
2.62526e-22
1.84865e-23
1.39735e-24
1.11405e-25
9.22273e-27
7.83505e-28
6.77334e-29
5.92338e-30
5.2179e-31
4.61559e-32
4.09022e-33
3.62459e-34
3.2072e-35
2.83024e-36
2.48839e-37
2.17802e-38
1.89659e-39
1.64216e-40
1.41309e-41
1.20794e-42
1.02531e-43
8.63833e-45
7.2216e-46
5.98902e-47
4.92636e-48
4.01899e-49
3.25198e-50
2.61016e-51
2.07836e-52
1.64189e-53
1.28691e-54
1.00077e-55
2.78345e-13
1.71167e-14
1.02554e-15
6.13768e-17
3.76287e-18
2.41422e-19
1.64223e-20
1.18762e-21
9.07953e-23
7.26651e-24
6.0247e-25
5.12793e-26
4.44837e-27
3.91112e-28
3.47061e-29
3.09809e-30
2.77495e-31
2.48889e-32
2.23169e-33
1.99784e-34
1.78362e-35
1.58659e-36
1.40512e-37
1.2381e-38
1.08476e-39
9.44529e-41
8.16949e-42
7.01622e-43
5.9814e-44
5.06044e-45
4.24795e-46
3.53768e-47
2.92257e-48
2.39489e-49
1.94651e-50
1.56907e-51
1.25433e-52
9.94342e-54
1.9515e-12
1.50896e-13
1.13631e-14
8.45606e-16
6.30634e-17
4.77086e-18
3.69386e-19
2.941e-20
2.40971e-21
2.0272e-22
1.74412e-23
1.52783e-24
1.35697e-25
1.2175e-26
1.10013e-27
9.98612e-29
9.0871e-30
8.27528e-31
7.53094e-32
6.84073e-33
6.19588e-34
5.59083e-35
5.02226e-36
4.48833e-37
3.98822e-38
3.52169e-39
3.08889e-40
2.69006e-41
2.32538e-42
1.99476e-43
1.69772e-44
1.43335e-45
1.20035e-46
9.96984e-48
8.21227e-49
6.70808e-50
5.43321e-51
4.36321e-52
5.03185e-12
4.53025e-13
3.98772e-14
3.46381e-15
2.99283e-16
2.58886e-17
2.25237e-18
1.97658e-19
1.75184e-20
1.56821e-21
1.4168e-22
1.29016e-23
1.18239e-24
1.08885e-25
1.00602e-26
9.31238e-28
8.62501e-29
7.98364e-30
7.37792e-31
6.80077e-32
6.24765e-33
5.71601e-34
5.20479e-35
4.71399e-36
4.24441e-37
3.79734e-38
3.37435e-39
2.97706e-40
2.60698e-41
2.26532e-42
1.95285e-43
1.66988e-44
1.41619e-45
1.19108e-46
9.93341e-48
8.21427e-49
6.7347e-50
5.47415e-51
8.52899e-12
8.50181e-13
8.29292e-14
7.96601e-15
7.57474e-16
7.15887e-17
6.74478e-18
6.34789e-19
5.97567e-20
5.63033e-21
5.31096e-22
5.01494e-23
4.73888e-24
4.47918e-25
4.23237e-26
3.99537e-27
3.7656e-28
3.54104e-29
3.32026e-30
3.10234e-31
2.88688e-32
2.67394e-33
2.46394e-34
2.25761e-35
2.05595e-36
1.8601e-37
1.67132e-38
1.49083e-39
1.31983e-40
1.15936e-41
1.01026e-42
8.73145e-44
7.48385e-45
6.3607e-46
5.36036e-47
4.4788e-48
3.71006e-49
3.04666e-50
1.15343e-11
1.22122e-12
1.26554e-13
1.28975e-14
1.29761e-15
1.2927e-16
1.27807e-17
1.25618e-18
1.22894e-19
1.19778e-20
1.16373e-21
1.1275e-22
1.08956e-23
1.05017e-24
1.00946e-25
9.67499e-27
9.24305e-28
8.79904e-29
8.3435e-30
7.87737e-31
7.40215e-32
6.9199e-33
6.4332e-34
5.94517e-35
5.45944e-36
4.97992e-37
4.5107e-38
4.0558e-39
3.61906e-40
3.20401e-41
2.81369e-42
2.45058e-43
2.1165e-44
1.81252e-45
1.53899e-46
1.29554e-47
1.08121e-48
8.94503e-50
1.44058e-12
1.53574e-13
1.60903e-14
1.66217e-15
1.69733e-16
1.71679e-17
1.72271e-18
1.71706e-19
1.70159e-20
1.67781e-21
1.64695e-22
1.61e-23
1.56772e-24
1.52067e-25
1.46928e-26
1.41392e-27
1.3549e-28
1.29253e-29
1.22715e-30
1.15915e-31
1.08898e-32
1.01716e-33
9.44259e-35
8.70924e-36
7.97846e-37
7.25728e-38
6.55264e-39
5.87118e-40
5.21906e-41
4.60174e-42
4.02386e-43
3.489e-44
2.9996e-45
2.55684e-46
2.16076e-47
1.8103e-48
1.50355e-49
1.44067e-12
1.53572e-13
1.60891e-14
1.66198e-15
1.69713e-16
1.71662e-17
1.72261e-18
1.71706e-19
1.70171e-20
1.67807e-21
1.64735e-22
1.61053e-23
1.56835e-24
1.52138e-25
1.47005e-26
1.41472e-27
1.35571e-28
1.29334e-29
1.22794e-30
1.15991e-31
1.08969e-32
1.01781e-33
9.44842e-35
8.71444e-36
7.98304e-37
7.26126e-38
6.55605e-39
5.87402e-40
5.22132e-41
4.60342e-42
4.02497e-43
3.48961e-44
2.9998e-45
2.55676e-46
2.1605e-47
1.80998e-48
1.50324e-49
1.22038e-12
1.26444e-13
1.28853e-14
1.29638e-15
1.29155e-16
1.2771e-17
1.25545e-18
1.22851e-19
1.19768e-20
1.16397e-21
1.12808e-22
1.09043e-23
1.05129e-24
1.01077e-25
9.68927e-27
9.25808e-28
8.81445e-29
8.35892e-30
7.89247e-31
7.41658e-32
6.93336e-33
6.4455e-34
5.95624e-35
5.46927e-36
4.98856e-37
4.51819e-38
4.06219e-39
3.62436e-40
3.20821e-41
2.81679e-42
2.45262e-43
2.1176e-44
1.81286e-45
1.53879e-46
1.29503e-47
1.08057e-48
8.93906e-50
7.32322e-51
8.49295e-13
8.28169e-14
7.95378e-15
7.56251e-16
7.14754e-17
6.73511e-18
6.34038e-19
5.97059e-20
5.62784e-21
5.31109e-22
5.01756e-23
4.74371e-24
4.4858e-25
4.2403e-26
4.00418e-27
3.77495e-28
3.55065e-29
3.32989e-30
3.11177e-31
2.89589e-32
2.68233e-33
2.47159e-34
2.26447e-35
2.06201e-36
1.8654e-37
1.6759e-38
1.49472e-39
1.32304e-40
1.16188e-41
1.0121e-42
8.7434e-44
7.49007e-45
6.36234e-46
5.35878e-47
4.47538e-48
3.70599e-49
3.04285e-50
2.47668e-51
4.52516e-13
3.98136e-14
3.45708e-15
2.98634e-16
2.58303e-17
2.24749e-18
1.97278e-19
1.74914e-20
1.5666e-21
1.41622e-22
1.29053e-23
1.18355e-24
1.09066e-25
1.00829e-26
9.33803e-28
8.65242e-29
8.01186e-30
7.40618e-31
6.82835e-32
6.27389e-33
5.74034e-34
5.2268e-35
4.73354e-36
4.26152e-37
3.81217e-38
3.38705e-39
2.98776e-40
2.61573e-41
2.27212e-42
1.95775e-43
1.673e-44
1.41775e-45
1.19139e-46
9.92806e-48
8.20417e-49
6.72307e-50
5.46337e-51
4.40233e-52
1.50764e-13
1.13451e-14
8.4375e-16
6.28938e-17
4.75652e-18
3.68248e-19
2.93245e-20
2.40367e-21
2.02333e-22
1.74213e-23
1.52745e-24
1.3579e-25
1.21943e-26
1.10276e-27
1.00168e-28
9.12017e-30
8.30933e-31
7.56492e-32
6.87377e-33
6.22715e-34
5.6196e-35
5.04804e-36
4.51097e-37
4.00783e-38
3.53855e-39
3.10326e-40
2.70212e-41
2.33519e-42
2.00234e-43
1.70312e-44
1.4367e-45
1.20191e-46
9.97157e-48
8.20462e-49
6.69547e-50
5.41932e-51
4.3506e-52
3.46399e-53
1.71046e-14
1.02385e-15
6.12195e-17
3.75006e-18
2.4045e-19
1.6352e-20
1.18269e-21
9.04609e-23
7.24509e-24
6.01265e-25
5.12332e-26
4.44957e-27
3.91665e-28
3.4791e-29
3.1084e-30
2.78621e-31
2.50049e-32
2.24321e-33
2.00894e-34
1.79403e-35
1.59606e-36
1.4135e-37
1.24535e-38
1.09093e-39
9.49736e-41
8.21312e-42
7.05225e-43
6.01033e-44
5.08256e-45
4.26355e-46
3.54727e-47
2.92699e-48
2.39532e-49
1.94428e-50
1.56547e-51
1.2504e-52
9.90775e-54
7.78789e-55
4.37061e-13
2.87825e-14
1.87973e-15
1.24427e-16
8.4979e-18
6.05557e-19
4.51979e-20
3.5259e-21
2.85849e-22
2.39159e-23
2.05102e-24
1.79233e-25
1.58821e-26
1.42149e-27
1.28103e-28
1.15945e-29
1.05179e-30
9.54661e-32
8.65776e-33
7.83584e-34
7.07063e-35
6.35566e-36
5.68695e-37
5.06223e-38
4.48021e-39
3.94025e-40
3.4421e-41
2.9856e-42
2.57048e-43
2.19617e-44
1.86168e-45
1.56556e-46
1.30592e-47
1.08045e-48
8.86567e-50
7.2144e-51
5.82149e-52
4.65788e-53
3.63173e-12
2.97935e-13
2.38948e-14
1.89804e-15
1.51077e-16
1.21635e-17
9.96817e-19
8.34003e-20
7.12492e-21
6.20382e-22
5.4899e-23
4.92184e-24
4.45699e-25
4.06581e-26
3.72772e-27
3.42831e-28
3.15743e-29
2.90795e-30
2.67496e-31
2.4551e-32
2.24621e-33
2.04702e-34
1.85688e-35
1.6756e-36
1.50327e-37
1.34018e-38
1.18674e-39
1.04341e-40
9.10587e-42
7.88581e-43
6.7755e-44
5.77481e-45
4.88181e-46
4.09289e-47
3.40288e-48
2.80541e-49
2.29319e-50
1.85844e-51
1.00653e-11
9.57662e-13
8.89722e-14
8.13808e-15
7.38018e-16
6.67335e-17
6.04152e-18
5.4909e-19
5.01721e-20
4.61103e-21
4.26126e-22
3.95709e-23
3.68891e-24
3.44858e-25
3.22948e-26
3.0263e-27
2.83493e-28
2.65229e-29
2.47615e-30
2.30498e-31
2.13788e-32
1.97443e-33
1.8146e-34
1.65868e-35
1.50719e-36
1.36081e-37
1.22032e-38
1.08653e-39
9.60205e-41
8.42034e-42
7.32564e-43
6.32172e-44
5.41051e-45
4.59207e-46
3.8646e-47
3.22472e-48
2.66771e-49
2.18782e-50
1.77283e-11
1.85953e-12
1.90241e-13
1.90961e-14
1.89005e-15
1.8519e-16
1.80183e-17
1.74481e-18
1.68427e-19
1.62239e-20
1.56046e-21
1.49907e-22
1.43844e-23
1.37846e-24
1.31889e-25
1.25945e-26
1.19981e-27
1.13975e-28
1.07908e-29
1.01774e-30
9.55734e-32
8.93207e-33
8.3038e-34
7.67567e-35
7.05156e-36
6.43594e-37
5.83361e-38
5.24952e-39
4.68846e-40
4.15489e-41
3.65269e-42
3.18504e-43
2.75424e-44
2.36172e-45
2.00795e-46
1.69255e-47
1.41438e-48
1.17165e-49
2.4429e-11
2.71534e-12
2.9418e-13
3.12121e-14
3.25584e-15
3.34989e-16
3.40838e-17
3.43637e-18
3.4386e-19
3.41924e-20
3.38181e-21
3.32917e-22
3.26357e-23
3.18669e-24
3.09979e-25
3.00378e-26
2.89936e-27
2.78712e-28
2.66761e-29
2.54143e-30
2.40925e-31
2.27189e-32
2.13027e-33
1.98551e-34
1.83883e-35
1.69162e-36
1.5453e-37
1.40133e-38
1.26116e-39
1.12614e-40
9.97506e-42
8.76321e-43
7.63442e-44
6.5949e-45
5.64838e-46
4.79615e-47
4.03729e-48
3.36886e-49
3.22644e-12
3.5909e-13
3.91063e-14
4.18171e-15
4.40339e-16
4.57706e-17
4.70545e-18
4.79209e-19
4.84086e-20
4.85568e-21
4.84022e-22
4.79775e-23
4.73109e-24
4.64258e-25
4.53418e-26
4.40754e-27
4.26412e-28
4.10528e-29
3.93236e-30
3.74678e-31
3.5501e-32
3.34403e-33
3.13048e-34
2.91159e-35
2.68965e-36
2.46707e-37
2.24627e-38
2.02966e-39
1.81953e-40
1.61801e-41
1.42696e-42
1.24794e-43
1.08214e-44
9.30364e-46
7.93002e-47
6.70078e-48
5.61278e-49
3.22695e-12
3.59117e-13
3.91067e-14
4.18158e-15
4.40317e-16
4.57685e-17
4.70536e-18
4.79219e-19
4.84123e-20
4.85636e-21
4.84124e-22
4.79909e-23
4.73272e-24
4.64444e-25
4.53621e-26
4.40968e-27
4.26633e-28
4.10751e-29
3.93457e-30
3.74892e-31
3.55213e-32
3.34591e-33
3.1322e-34
2.91315e-35
2.69104e-36
2.46828e-37
2.24731e-38
2.03053e-39
1.82023e-40
1.61853e-41
1.42731e-42
1.24814e-43
1.08222e-44
9.30352e-46
7.92934e-47
6.69987e-48
5.61189e-49
2.71401e-12
2.93989e-13
3.11901e-14
3.25352e-15
3.34764e-16
3.4064e-17
3.43487e-18
3.43773e-19
3.41911e-20
3.38248e-21
3.33066e-22
3.26583e-23
3.18962e-24
3.10324e-25
3.00762e-26
2.90346e-27
2.79138e-28
2.67193e-29
2.54571e-30
2.4134e-31
2.27581e-32
2.13391e-33
1.98883e-34
1.84182e-35
1.69427e-36
1.54762e-37
1.40332e-38
1.26281e-39
1.12745e-40
9.98479e-42
8.7697e-43
7.63802e-44
6.59614e-45
5.64792e-46
4.79467e-47
4.03538e-48
3.36706e-49
2.78181e-50
1.8581e-12
1.90042e-13
1.90731e-14
1.88764e-15
1.84957e-16
1.79977e-17
1.74317e-18
1.68314e-19
1.62186e-20
1.56055e-21
1.49979e-22
1.43973e-23
1.38024e-24
1.32106e-25
1.26189e-26
1.20245e-27
1.14249e-28
1.08187e-29
1.0205e-30
9.58403e-32
8.95727e-33
8.3271e-34
7.69683e-35
7.07051e-36
6.45268e-37
5.84819e-38
5.26195e-39
4.69873e-40
4.16298e-41
3.65862e-42
3.18891e-43
2.75629e-44
2.3623e-45
2.00749e-46
1.69149e-47
1.41309e-48
1.17042e-49
9.60925e-51
9.56854e-13
8.88591e-14
8.12527e-15
7.36713e-16
6.66105e-17
6.03079e-18
5.48227e-19
5.01096e-20
4.60729e-21
4.26004e-22
3.95827e-23
3.69223e-24
3.45367e-25
3.23592e-26
3.0337e-27
2.84296e-28
2.66067e-29
2.48464e-30
2.31338e-31
2.14596e-32
1.98202e-33
1.82156e-34
1.66495e-35
1.51276e-36
1.36569e-37
1.22454e-38
1.0901e-39
9.63129e-41
8.44314e-42
7.3421e-43
6.33221e-44
5.41579e-45
4.59318e-46
3.86281e-47
3.22128e-48
2.66371e-49
2.18409e-50
1.77558e-51
2.97724e-13
2.38624e-14
1.89445e-15
1.5073e-16
1.21325e-17
9.9424e-19
8.31989e-20
7.11028e-21
6.19434e-22
5.48518e-23
4.92138e-24
4.46018e-25
4.0719e-26
3.73594e-27
3.43796e-28
3.16793e-29
2.91889e-30
2.686e-31
2.46595e-32
2.25659e-33
2.05668e-34
1.86565e-35
1.68341e-36
1.51012e-37
1.34613e-38
1.19186e-39
1.04772e-40
9.14104e-42
7.91297e-43
6.79476e-44
5.78665e-45
4.88719e-46
4.09321e-47
3.39979e-48
2.80051e-49
2.28785e-50
1.8536e-51
1.48929e-52
2.87621e-14
1.87671e-15
1.24124e-16
8.47131e-18
6.03389e-19
4.50304e-20
3.51349e-21
2.8497e-22
2.38582e-23
2.0478e-24
1.79125e-25
1.58888e-26
1.4235e-27
1.28399e-28
1.16303e-29
1.05573e-30
9.58759e-32
8.6989e-33
7.87595e-34
7.10864e-35
6.39064e-36
5.71829e-37
5.08969e-38
4.50393e-39
3.96056e-40
3.45931e-41
2.99993e-42
2.58204e-43
2.20501e-44
1.86788e-45
1.56931e-46
1.30756e-47
1.08047e-48
8.85502e-50
7.19823e-51
5.80415e-52
4.64227e-53
3.68288e-54
5.83703e-13
4.10317e-14
2.89702e-15
2.08855e-16
1.55392e-17
1.19857e-18
9.58056e-20
7.90884e-21
6.71012e-22
5.8214e-23
5.13976e-24
4.5992e-25
4.15677e-26
3.78376e-27
3.46058e-28
3.17375e-29
2.9139e-30
2.67453e-31
2.45119e-32
2.2409e-33
2.04176e-34
1.85265e-35
1.67304e-36
1.50276e-37
1.34186e-38
1.19056e-39
1.04913e-40
9.1788e-42
7.97068e-43
6.86833e-44
5.87179e-45
4.97956e-46
4.18855e-47
3.49425e-48
2.89087e-49
2.37166e-50
1.92926e-51
1.55601e-52
5.52603e-12
4.76242e-13
4.0265e-14
3.37814e-15
2.83959e-16
2.40856e-17
2.07051e-18
1.80709e-19
1.60088e-20
1.43732e-21
1.3051e-22
1.19572e-23
1.10299e-24
1.0224e-25
9.50665e-27
8.85407e-28
8.2489e-29
7.6787e-30
7.1348e-31
6.61138e-32
6.10489e-33
5.61355e-34
5.1369e-35
4.67543e-36
4.23031e-37
3.80317e-38
3.39595e-39
3.01066e-40
2.6492e-41
2.31319e-42
2.00384e-43
1.72187e-44
1.46745e-45
1.24026e-46
1.03945e-47
8.63775e-49
7.11654e-50
5.81264e-51
1.63593e-11
1.62813e-12
1.58143e-13
1.51026e-14
1.42691e-15
1.34042e-16
1.25653e-17
1.17831e-18
1.10696e-19
1.04246e-20
9.84178e-22
9.31183e-23
8.82476e-24
8.37108e-25
7.94233e-26
7.53137e-27
7.13237e-28
6.74086e-29
6.35362e-30
5.96856e-31
5.58467e-32
5.20183e-33
4.82076e-34
4.44281e-35
4.06986e-36
3.70421e-37
3.3484e-38
3.00507e-39
2.67681e-40
2.36601e-41
2.07471e-42
1.80453e-43
1.55659e-44
1.33149e-45
1.1293e-46
9.49631e-48
7.91663e-49
6.54232e-50
2.98721e-11
3.26656e-12
3.47681e-13
3.62208e-14
3.71064e-15
3.75249e-16
3.75739e-17
3.7339e-18
3.68894e-19
3.62785e-20
3.55449e-21
3.47156e-22
3.38084e-23
3.2834e-24
3.17984e-25
3.07042e-26
2.95528e-27
2.83449e-28
2.70816e-29
2.57651e-30
2.43993e-31
2.29897e-32
2.15438e-33
2.00711e-34
1.85829e-35
1.70917e-36
1.56113e-37
1.41559e-38
1.27398e-39
1.13763e-40
1.00777e-41
8.85465e-43
7.71548e-44
6.6663e-45
5.71078e-46
4.85019e-47
4.0836e-48
3.40811e-49
4.19418e-11
4.85164e-12
5.45495e-13
5.9891e-14
6.44618e-15
6.82406e-16
7.1246e-17
7.35221e-18
7.51269e-19
7.61243e-20
7.6578e-21
7.65467e-22
7.60823e-23
7.52289e-24
7.40229e-25
7.24939e-26
7.06668e-27
6.85629e-28
6.62016e-29
6.36025e-30
6.07858e-31
5.77742e-32
5.45933e-33
5.12721e-34
4.78435e-35
4.43435e-36
4.08103e-37
3.72839e-38
3.38041e-39
3.04097e-40
2.71369e-41
2.40179e-42
2.10804e-43
1.83459e-44
1.58299e-45
1.35413e-46
1.1483e-47
9.65237e-49
5.80918e-12
6.7026e-13
7.54409e-14
8.31283e-15
8.99487e-16
9.5823e-17
1.0072e-17
1.04646e-18
1.07634e-19
1.09735e-20
1.11008e-21
1.11514e-22
1.11313e-23
1.10459e-24
1.09001e-25
1.06984e-26
1.04446e-27
1.01425e-28
9.79586e-30
9.40832e-31
8.98392e-32
8.52705e-33
8.04257e-34
7.5359e-35
7.01291e-36
6.47985e-37
5.94318e-38
5.40944e-39
4.88499e-40
4.37589e-41
3.88764e-42
3.42501e-43
2.99192e-44
2.59125e-45
2.22492e-46
1.89381e-47
1.59788e-48
5.81051e-12
6.70352e-13
7.54461e-14
8.31303e-15
8.99486e-16
9.58226e-17
1.00721e-17
1.0465e-18
1.07643e-19
1.0975e-20
1.11029e-21
1.11542e-22
1.11347e-23
1.10498e-24
1.09044e-25
1.0703e-26
1.04494e-27
1.01475e-28
9.80078e-30
9.41314e-31
8.98854e-32
8.5314e-33
8.0466e-34
7.53957e-35
7.01621e-36
6.48276e-37
5.9457e-38
5.41154e-39
4.88667e-40
4.37715e-41
3.88849e-42
3.4255e-43
2.99211e-44
2.59124e-45
2.22477e-46
1.89361e-47
1.59768e-48
4.84994e-12
5.45225e-13
5.98583e-14
6.44265e-15
6.82054e-16
7.12145e-17
7.34981e-18
7.51139e-19
7.61251e-20
7.65942e-21
7.65792e-22
7.61306e-23
7.52914e-24
7.40972e-25
7.25775e-26
7.07572e-27
6.86579e-28
6.6299e-29
6.36998e-30
6.0881e-31
5.78653e-32
5.46787e-33
5.13509e-34
4.79151e-35
4.44075e-36
4.08666e-37
3.73323e-38
3.38444e-39
3.04417e-40
2.71605e-41
2.40337e-42
2.10891e-43
1.8349e-44
1.58288e-45
1.35377e-46
1.14784e-47
9.64798e-49
8.02896e-50
3.26462e-12
3.47388e-13
3.61853e-14
3.7068e-15
3.74865e-16
3.7539e-17
3.73106e-18
3.68702e-19
3.62703e-20
3.55489e-21
3.47322e-22
3.3837e-23
3.28732e-24
3.18462e-25
3.07589e-26
2.96123e-27
2.84076e-28
2.71459e-29
2.58294e-30
2.4462e-31
2.30495e-32
2.15998e-33
2.01225e-34
1.86293e-35
1.7133e-36
1.56474e-37
1.41868e-38
1.27652e-39
1.13963e-40
1.00923e-41
8.86413e-43
7.72044e-44
6.66763e-45
5.70953e-46
4.84742e-47
4.08025e-48
3.40497e-49
2.8163e-50
1.62703e-12
1.57974e-13
1.50825e-14
1.42478e-15
1.33834e-16
1.25466e-17
1.17678e-18
1.10584e-19
1.04181e-20
9.84026e-22
9.3152e-23
8.83264e-24
8.38284e-25
7.95719e-26
7.54855e-27
7.15118e-28
6.76069e-29
6.37391e-30
5.98879e-31
5.60432e-32
5.22046e-33
4.83803e-34
4.45852e-35
4.08394e-36
3.71664e-37
3.35918e-38
3.01421e-39
2.6843e-40
2.37183e-41
2.07888e-42
1.80716e-43
1.55787e-44
1.33169e-45
1.12876e-46
9.48671e-48
7.90564e-49
6.53214e-50
5.35089e-51
4.75938e-13
4.02156e-14
3.37242e-15
2.83381e-16
2.40321e-17
2.0659e-18
1.8034e-19
1.59816e-20
1.4356e-21
1.30433e-22
1.19584e-23
1.10391e-24
1.02397e-25
9.52732e-27
8.87822e-28
8.27526e-29
7.70633e-30
7.16289e-31
6.63919e-32
6.13171e-33
5.63872e-34
5.15994e-35
4.69612e-36
4.24863e-37
3.8192e-38
3.40976e-39
3.02229e-40
2.65864e-41
2.32042e-42
2.00889e-43
1.72487e-44
1.46869e-45
1.24013e-46
1.03841e-47
8.62265e-49
7.10051e-50
5.79835e-51
4.69522e-52
4.09963e-14
2.89197e-15
2.08338e-16
1.54922e-17
1.19463e-18
9.54925e-20
7.88516e-21
6.69328e-22
5.81066e-23
5.13449e-24
4.59872e-25
4.16015e-26
3.79001e-27
3.46891e-28
3.18356e-29
2.92462e-30
2.68571e-31
2.46247e-32
2.25196e-33
2.0523e-34
1.86242e-35
1.68187e-36
1.51057e-37
1.34867e-38
1.19643e-39
1.05414e-40
9.22056e-42
8.0042e-43
6.89368e-44
5.88923e-45
4.98969e-46
4.19244e-47
3.49335e-48
2.88685e-49
2.36612e-50
1.92352e-51
1.55095e-52
1.24028e-53
6.95274e-13
5.19607e-14
3.92981e-15
3.04222e-16
2.42363e-17
1.98848e-18
1.67657e-19
1.44748e-20
1.27454e-21
1.14015e-22
1.03257e-23
9.4389e-25
8.68688e-26
8.0321e-27
7.44796e-28
6.91544e-29
6.42095e-30
5.95499e-31
5.51121e-32
5.08525e-33
4.67455e-34
4.27798e-35
3.89541e-36
3.52735e-37
3.17474e-38
2.83879e-39
2.52085e-40
2.22232e-41
1.94439e-42
1.68803e-43
1.45383e-44
1.24199e-45
1.05232e-46
8.84225e-48
7.3677e-49
6.0873e-50
4.98658e-51
4.04973e-52
7.29723e-12
6.56231e-13
5.80648e-14
5.10539e-15
4.49568e-16
3.98587e-17
3.56851e-18
3.22919e-19
2.95221e-20
2.72332e-21
2.53074e-22
2.36521e-23
2.21962e-24
2.08863e-25
1.96817e-26
1.85515e-27
1.74731e-28
1.64299e-29
1.54105e-30
1.44076e-31
1.34173e-32
1.24388e-33
1.14732e-34
1.05236e-35
9.59425e-37
8.69015e-38
7.81709e-39
6.98099e-40
6.18752e-41
5.44174e-42
4.74779e-43
4.10874e-44
3.52639e-45
3.00132e-46
2.53287e-47
2.11931e-48
1.75802e-49
1.44564e-50
2.29664e-11
2.37348e-12
2.39354e-13
2.37114e-14
2.32035e-15
2.25287e-16
2.17727e-17
2.09918e-18
2.02184e-19
1.94683e-20
1.87458e-21
1.8049e-22
1.73725e-23
1.67092e-24
1.60521e-25
1.53945e-26
1.47308e-27
1.40565e-28
1.33687e-29
1.26658e-30
1.19478e-31
1.12162e-32
1.04737e-33
9.72429e-35
8.97294e-36
8.22542e-37
7.48808e-38
6.76756e-39
6.07041e-40
5.40284e-41
4.77037e-42
4.17765e-43
3.62827e-44
3.12467e-45
2.66808e-46
2.25865e-47
1.89548e-48
1.57679e-49
4.34172e-11
4.9158e-12
5.40994e-13
5.81745e-14
6.13955e-15
6.38268e-16
6.5556e-17
6.66766e-18
6.72776e-19
6.74369e-20
6.72197e-21
6.66779e-22
6.58518e-23
6.47712e-24
6.34578e-25
6.19274e-26
6.01919e-27
5.82611e-28
5.61443e-29
5.38518e-30
5.13958e-31
4.87916e-32
4.60574e-33
4.32156e-34
4.02917e-35
3.73145e-36
3.43154e-37
3.13272e-38
2.83831e-39
2.55153e-40
2.27538e-41
2.01253e-42
1.76524e-43
1.53528e-44
1.32386e-45
1.13172e-46
9.59043e-48
8.05577e-49
6.21166e-11
7.42873e-12
8.61843e-13
9.74333e-14
1.07753e-14
1.16958e-15
1.24942e-16
1.31665e-17
1.37133e-18
1.41388e-19
1.44494e-20
1.46523e-21
1.4755e-22
1.47647e-23
1.4688e-24
1.45306e-25
1.4298e-26
1.39946e-27
1.3625e-28
1.31936e-29
1.27048e-30
1.21636e-31
1.15755e-32
1.09467e-33
1.02843e-34
9.59598e-36
8.8901e-37