/*--------------------------------*- C++ -*----------------------------------*\
| =========                 |                                                 |
| \\      /  F ield         | OpenFOAM: The Open Source CFD Toolbox           |
|  \\    /   O peration     | Version:  2.3.1                                 |
|   \\  /    A nd           | Web:      www.OpenFOAM.org                      |
|    \\/     M anipulation  |                                                 |
\*---------------------------------------------------------------------------*/
FoamFile
{
    version     2.0;
    format      ascii;
    class       volVectorField;
    location    "20";
    object      U;
}
// * * * * * * * * * * * * * * * * * * * * * * * * * * * * * * * * * * * * * //

dimensions      [0 1 -1 0 0 0 0];

internalField   nonuniform List<vector> 
38262
(
(0.00670609 6.75167e-05 6.76432e-05)
(0.00630438 6.00867e-05 5.87456e-05)
(0.00595251 5.36419e-05 5.12379e-05)
(0.005643 4.80475e-05 4.48776e-05)
(0.00536963 4.3165e-05 3.94635e-05)
(0.00512727 3.88847e-05 3.48384e-05)
(0.00491161 3.512e-05 3.08758e-05)
(0.00471905 3.17968e-05 2.74679e-05)
(0.00454656 2.8852e-05 2.45213e-05)
(0.00439159 2.62335e-05 2.19593e-05)
(0.00425201 2.38928e-05 1.97213e-05)
(0.00412602 2.17832e-05 1.77569e-05)
(0.0040121 1.98705e-05 1.60205e-05)
(0.00390896 1.81392e-05 1.44725e-05)
(0.00381548 1.65842e-05 1.30846e-05)
(0.00373063 1.51951e-05 1.1838e-05)
(0.0036535 1.39486e-05 1.07163e-05)
(0.00358331 1.28164e-05 9.70409e-06)
(0.0035194 1.17781e-05 8.78911e-06)
(0.00346118 1.08161e-05 7.9621e-06)
(0.00340818 9.9084e-06 7.21054e-06)
(0.00335997 9.04204e-06 6.51986e-06)
(0.00331621 8.22232e-06 5.88233e-06)
(0.00327658 7.45974e-06 5.30007e-06)
(0.00324073 6.75972e-06 4.77768e-06)
(0.0032083 6.12917e-06 4.31462e-06)
(0.00317892 5.57802e-06 3.90412e-06)
(0.00315227 5.10761e-06 3.53645e-06)
(0.00312805 4.70057e-06 3.20247e-06)
(0.00310603 4.32526e-06 2.89451e-06)
(0.00308604 3.95268e-06 2.606e-06)
(0.003068 3.56494e-06 2.33321e-06)
(0.00305183 3.15017e-06 2.07684e-06)
(0.0030375 2.7037e-06 1.84195e-06)
(0.00302496 2.23606e-06 1.63684e-06)
(0.00301412 1.76561e-06 1.46678e-06)
(0.00300483 1.31706e-06 1.33436e-06)
(0.00299692 9.09528e-07 1.23301e-06)
(0.00718374 0.000119853 9.22169e-05)
(0.00676524 0.000106104 8.08037e-05)
(0.00639879 9.42842e-05 7.10856e-05)
(0.00607651 8.41238e-05 6.27746e-05)
(0.00579192 7.53441e-05 5.5633e-05)
(0.00553963 6.77087e-05 4.94767e-05)
(0.00531518 6.10275e-05 4.41543e-05)
(0.00511479 5.51495e-05 3.95347e-05)
(0.00493533 4.99535e-05 3.55077e-05)
(0.00477415 4.53333e-05 3.1985e-05)
(0.00462902 4.11904e-05 2.88901e-05)
(0.00449806 3.74457e-05 2.61503e-05)
(0.00437972 3.40557e-05 2.37033e-05)
(0.00427264 3.10101e-05 2.15054e-05)
(0.00417561 2.83081e-05 1.95296e-05)
(0.00408755 2.5932e-05 1.77514e-05)
(0.00400753 2.38349e-05 1.61424e-05)
(0.00393471 2.19588e-05 1.4677e-05)
(0.00386842 2.02577e-05 1.33401e-05)
(0.00380805 1.86931e-05 1.21172e-05)
(0.00375309 1.72254e-05 1.09863e-05)
(0.00370312 1.58302e-05 9.93186e-06)
(0.00365776 1.45066e-05 8.95666e-06)
(0.00361664 1.32602e-05 8.06901e-06)
(0.0035794 1.20953e-05 7.27074e-06)
(0.00354569 1.10273e-05 6.56059e-06)
(0.00351514 1.00788e-05 5.93575e-06)
(0.00348744 9.25977e-06 5.38602e-06)
(0.0034623 8.55255e-06 4.89044e-06)
(0.00343947 7.91938e-06 4.42296e-06)
(0.0034188 7.31988e-06 3.96661e-06)
(0.00340018 6.7132e-06 3.51934e-06)
(0.00338351 6.05397e-06 3.08575e-06)
(0.00336874 5.3093e-06 2.67469e-06)
(0.00335581 4.48157e-06 2.30079e-06)
(0.00334463 3.60295e-06 1.97569e-06)
(0.00333505 2.72771e-06 1.7069e-06)
(0.00332691 1.90126e-06 1.49687e-06)
(0.00727765 0.000115197 0.000103851)
(0.00685736 0.000101431 9.11286e-05)
(0.00648928 8.96931e-05 8.03014e-05)
(0.0061655 7.96752e-05 7.10496e-05)
(0.0058795 7.10764e-05 6.31046e-05)
(0.00562591 6.36383e-05 5.62494e-05)
(0.00540026 5.7154e-05 5.03066e-05)
(0.00519881 5.14629e-05 4.51337e-05)
(0.0050184 4.6432e-05 4.06187e-05)
(0.00485638 4.19401e-05 3.66649e-05)
(0.00471052 3.78863e-05 3.31766e-05)
(0.00457896 3.42127e-05 3.00666e-05)
(0.00446015 3.09064e-05 2.72729e-05)
(0.00435271 2.79755e-05 2.47621e-05)
(0.0042554 2.54227e-05 2.25148e-05)
(0.0041671 2.3228e-05 2.05052e-05)
(0.00408684 2.13416e-05 1.86933e-05)
(0.00401382 1.97024e-05 1.704e-05)
(0.00394733 1.82573e-05 1.55245e-05)
(0.00388678 1.69592e-05 1.41312e-05)
(0.00383165 1.57634e-05 1.28368e-05)
(0.00378153 1.46411e-05 1.16273e-05)
(0.00373601 1.35782e-05 1.05075e-05)
(0.00369471 1.25598e-05 9.48266e-06)
(0.00365728 1.1574e-05 8.55235e-06)
(0.00362337 1.06301e-05 7.71844e-06)
(0.00359267 9.75683e-06 6.98306e-06)
(0.00356484 8.98371e-06 6.33651e-06)
(0.00353961 8.32441e-06 5.75251e-06)
(0.00351673 7.77362e-06 5.20147e-06)
(0.00349604 7.30475e-06 4.67063e-06)
(0.00347737 6.8607e-06 4.159e-06)
(0.00346063 6.36077e-06 3.66135e-06)
(0.00344575 5.73638e-06 3.17654e-06)
(0.0034327 4.96416e-06 2.71815e-06)
(0.00342141 4.06784e-06 2.30498e-06)
(0.00341175 3.10679e-06 1.9566e-06)
(0.00340354 2.14473e-06 1.68981e-06)
(0.00730207 9.0088e-05 0.000107308)
(0.0068823 7.91313e-05 9.41029e-05)
(0.00651461 6.97612e-05 8.29079e-05)
(0.00619107 6.17243e-05 7.33741e-05)
(0.00590521 5.47876e-05 6.52066e-05)
(0.00565168 4.87655e-05 5.81659e-05)
(0.00542606 4.35092e-05 5.2062e-05)
(0.0052246 3.889e-05 4.67506e-05)
(0.00504418 3.4787e-05 4.21158e-05)
(0.00488213 3.10947e-05 3.80466e-05)
(0.00473627 2.77466e-05 3.44336e-05)
(0.00460477 2.47266e-05 3.11927e-05)
(0.00448608 2.20476e-05 2.82769e-05)
(0.00437881 1.97199e-05 2.56648e-05)
(0.00428167 1.77369e-05 2.334e-05)
(0.00419353 1.60738e-05 2.12737e-05)
(0.00411341 1.46921e-05 1.94178e-05)
(0.0040405 1.35494e-05 1.77286e-05)
(0.0039741 1.26012e-05 1.61839e-05)
(0.00391362 1.17963e-05 1.47645e-05)
(0.00385854 1.1087e-05 1.34429e-05)
(0.00380845 1.04454e-05 1.22078e-05)
(0.00376294 9.85249e-06 1.10667e-05)
(0.00372161 9.27725e-06 1.00193e-05)
(0.00368412 8.68721e-06 9.05458e-06)
(0.00365016 8.0765e-06 8.17088e-06)
(0.00361943 7.47489e-06 7.37606e-06)
(0.00359163 6.93165e-06 6.66962e-06)
(0.00356646 6.49203e-06 6.03346e-06)
(0.00354367 6.1767e-06 5.44773e-06)
(0.00352303 5.96405e-06 4.90747e-06)
(0.00350437 5.78391e-06 4.4053e-06)
(0.00348756 5.53914e-06 3.91777e-06)
(0.00347257 5.14638e-06 3.42969e-06)
(0.00345939 4.5635e-06 2.94994e-06)
(0.00344797 3.79655e-06 2.50083e-06)
(0.00343823 2.89068e-06 2.10969e-06)
(0.00342998 1.91751e-06 1.80079e-06)
(0.00730813 5.60437e-05 0.000108058)
(0.00688909 4.90597e-05 9.47188e-05)
(0.00652197 4.30087e-05 8.34293e-05)
(0.00619886 3.77259e-05 7.38202e-05)
(0.00591334 3.30866e-05 6.55895e-05)
(0.0056601 2.90089e-05 5.84998e-05)
(0.00543471 2.54248e-05 5.23647e-05)
(0.00523343 2.22542e-05 4.70353e-05)
(0.00505313 1.94105e-05 4.23809e-05)
(0.00489119 1.68316e-05 3.82752e-05)
(0.00474547 1.45005e-05 3.46092e-05)
(0.00461416 1.24356e-05 3.13151e-05)
(0.00449569 1.0658e-05 2.83603e-05)
(0.00438864 9.16976e-06 2.5724e-05)
(0.00429172 7.95352e-06 2.33841e-05)
(0.00420378 6.98357e-06 2.13082e-05)
(0.00412384 6.2362e-06 1.94509e-05)
(0.00405109 5.68947e-06 1.77746e-05)
(0.00398482 5.3118e-06 1.62561e-05)
(0.00392443 5.05926e-06 1.48636e-05)
(0.00386941 4.89225e-06 1.35613e-05)
(0.00381937 4.78661e-06 1.2345e-05)
(0.00377387 4.7177e-06 1.12295e-05)
(0.00373251 4.64652e-06 1.02053e-05)
(0.00369496 4.5349e-06 9.24385e-06)
(0.00366094 4.37115e-06 8.33504e-06)
(0.0036302 4.1793e-06 7.49312e-06)
(0.00360245 4.0096e-06 6.73376e-06)
(0.00357737 3.91624e-06 6.05851e-06)
(0.00355468 3.92696e-06 5.46385e-06)
(0.00353409 4.01925e-06 4.94635e-06)
(0.00351541 4.12062e-06 4.48282e-06)
(0.00349851 4.13839e-06 4.03168e-06)
(0.00348337 3.9937e-06 3.56828e-06)
(0.00347001 3.6386e-06 3.09588e-06)
(0.00345842 3.06449e-06 2.63281e-06)
(0.00344855 2.30206e-06 2.20778e-06)
(0.00344026 1.42072e-06 1.84633e-06)
(0.00689027 1.77105e-05 9.46877e-05)
(0.0065234 1.52568e-05 8.33903e-05)
(0.0062005 1.29496e-05 7.3758e-05)
(0.00591517 1.07846e-05 6.54951e-05)
(0.00566213 8.78367e-06 5.83815e-05)
(0.00543692 6.96221e-06 5.22393e-05)
(0.00523578 5.30609e-06 4.69098e-05)
(0.0050556 3.78892e-06 4.2244e-05)
(0.00489379 2.40593e-06 3.811e-05)
(0.00474823 1.18211e-06 3.44117e-05)
(0.00461712 1.51313e-07 3.10969e-05)
(0.00449886 -6.66366e-07 2.81371e-05)
(0.00439201 -1.27368e-06 2.55052e-05)
(0.00429526 -1.69292e-06 2.31705e-05)
(0.00420748 -1.95217e-06 2.10981e-05)
(0.0041277 -2.07091e-06 1.92491e-05)
(0.00405508 -2.05974e-06 1.75945e-05)
(0.00398891 -1.93085e-06 1.61092e-05)
(0.0039286 -1.70219e-06 1.47495e-05)
(0.00387364 -1.39384e-06 1.34759e-05)
(0.00382363 -1.02916e-06 1.22913e-05)
(0.00377813 -6.39559e-07 1.12127e-05)
(0.00373674 -2.58272e-07 1.02199e-05)
(0.00369913 9.24926e-08 9.27221e-06)
(0.00366507 4.06754e-07 8.35465e-06)
(0.00363431 6.93657e-07 7.48574e-06)
(0.00360659 9.77961e-07 6.6947e-06)
(0.00358158 1.29158e-06 6.00248e-06)
(0.00355895 1.64854e-06 5.41941e-06)
(0.00353838 2.02295e-06 4.93731e-06)
(0.00351964 2.35628e-06 4.51643e-06)
(0.00350261 2.57981e-06 4.10357e-06)
(0.0034873 2.63505e-06 3.66975e-06)
(0.00347373 2.48301e-06 3.21201e-06)
(0.00346196 2.11256e-06 2.74062e-06)
(0.00345193 1.54574e-06 2.28359e-06)
(0.00344356 8.37628e-07 1.86775e-06)
(0.00688972 -1.44504e-05 9.48297e-05)
(0.00652269 -1.32064e-05 8.35163e-05)
(0.00619967 -1.24041e-05 7.38379e-05)
(0.0059143 -1.19468e-05 6.55149e-05)
(0.00566127 -1.17309e-05 5.83461e-05)
(0.0054361 -1.16684e-05 5.21624e-05)
(0.00523502 -1.16996e-05 4.67971e-05)
(0.0050549 -1.17794e-05 4.20914e-05)
(0.00489319 -1.18578e-05 3.79163e-05)
(0.00474777 -1.18832e-05 3.41869e-05)
(0.00461682 -1.18162e-05 3.08562e-05)
(0.00449872 -1.16363e-05 2.78946e-05)
(0.00439201 -1.13428e-05 2.52714e-05)
(0.00429539 -1.09557e-05 2.29509e-05)
(0.0042077 -1.05038e-05 2.08916e-05)
(0.00412799 -1.00078e-05 1.90532e-05)
(0.00405545 -9.47105e-06 1.74091e-05)
(0.00398936 -8.88153e-06 1.59357e-05)
(0.00392912 -8.22254e-06 1.45918e-05)
(0.00387422 -7.49207e-06 1.33414e-05)
(0.00382423 -6.71375e-06 1.21855e-05)
(0.00377872 -5.92107e-06 1.11315e-05)
(0.00373731 -5.13141e-06 1.01537e-05)
(0.00369969 -4.34235e-06 9.21533e-06)
(0.0036656 -3.55158e-06 8.30537e-06)
(0.00363483 -2.7703e-06 7.44062e-06)
(0.0036071 -2.0138e-06 6.65174e-06)
(0.00358209 -1.29159e-06 5.96952e-06)
(0.00355945 -6.14865e-07 5.41031e-06)
(0.00353883 -7.04122e-09 4.96174e-06)
(0.00351999 5.0062e-07 4.57471e-06)
(0.00350281 8.74952e-07 4.19158e-06)
(0.00348731 1.08689e-06 3.78014e-06)
(0.00347355 1.11683e-06 3.33116e-06)
(0.00346158 9.62559e-07 2.8504e-06)
(0.0034514 6.40098e-07 2.36577e-06)
(0.00344294 1.8218e-07 1.90732e-06)
(0.00688747 -4.63833e-05 9.50871e-05)
(0.00651992 -4.1453e-05 8.37503e-05)
(0.00619648 -3.74921e-05 7.40197e-05)
(0.00591081 -3.43217e-05 6.56265e-05)
(0.00565759 -3.17797e-05 5.83832e-05)
(0.00543232 -2.97223e-05 5.21305e-05)
(0.0052312 -2.8024e-05 4.67034e-05)
(0.00505109 -2.65745e-05 4.19433e-05)
(0.00488944 -2.52777e-05 3.77258e-05)
(0.0047441 -2.40599e-05 3.39676e-05)
(0.00461325 -2.28753e-05 3.06198e-05)
(0.00449525 -2.17015e-05 2.76535e-05)
(0.00438863 -2.05342e-05 2.50416e-05)
(0.00429206 -1.93853e-05 2.27442e-05)
(0.0042044 -1.82723e-05 2.07079e-05)
(0.0041247 -1.72046e-05 1.88803e-05)
(0.00405217 -1.61744e-05 1.72309e-05)
(0.00398613 -1.51525e-05 1.57455e-05)
(0.00392595 -1.41001e-05 1.44e-05)
(0.0038711 -1.29985e-05 1.31653e-05)
(0.00382112 -1.18624e-05 1.20294e-05)
(0.00377562 -1.07152e-05 1.09841e-05)
(0.00373421 -9.5578e-06 1.00065e-05)
(0.0036966 -8.37431e-06 9.07709e-06)
(0.00366252 -7.16223e-06 8.19364e-06)
(0.00363174 -5.95075e-06 7.3664e-06)
(0.00360396 -4.78955e-06 6.6163e-06)
(0.00357888 -3.72767e-06 5.9703e-06)
(0.00355615 -2.80129e-06 5.44423e-06)
(0.00353541 -2.02796e-06 5.02423e-06)
(0.00351642 -1.40936e-06 4.66185e-06)
(0.00349908 -9.3909e-07 4.29946e-06)
(0.0034834 -6.10482e-07 3.8996e-06)
(0.00346944 -4.16454e-07 3.44908e-06)
(0.0034573 -3.4736e-07 2.95643e-06)
(0.00344698 -3.94247e-07 2.45187e-06)
(0.00343841 -5.48675e-07 1.96221e-06)
(0.00343148 -7.82522e-07 1.50365e-06)
(0.00687967 -7.73933e-05 9.45766e-05)
(0.00651137 -6.89498e-05 8.33046e-05)
(0.00618735 -6.19083e-05 7.36053e-05)
(0.00590124 -5.60236e-05 6.52161e-05)
(0.00564772 -5.10977e-05 5.79579e-05)
(0.00542227 -4.69589e-05 5.16833e-05)
(0.00522105 -4.34411e-05 4.62358e-05)
(0.00504091 -4.03862e-05 4.14618e-05)
(0.00487928 -3.76593e-05 3.72388e-05)
(0.00473399 -3.51633e-05 3.34824e-05)
(0.0046032 -3.28452e-05 3.01423e-05)
(0.00448527 -3.06865e-05 2.71927e-05)
(0.0043787 -2.86839e-05 2.46091e-05)
(0.00428214 -2.68332e-05 2.23475e-05)
(0.00419447 -2.51206e-05 2.03444e-05)
(0.00411475 -2.35222e-05 1.85357e-05)
(0.00404222 -2.20106e-05 1.68856e-05)
(0.0039762 -2.05539e-05 1.53899e-05)
(0.00391606 -1.91145e-05 1.40433e-05)
(0.00386125 -1.76656e-05 1.28234e-05)
(0.00381129 -1.62044e-05 1.17069e-05)
(0.0037658 -1.47351e-05 1.06737e-05)
(0.00372441 -1.32498e-05 9.70676e-06)
(0.00368683 -1.17365e-05 8.80173e-06)
(0.00365278 -1.02022e-05 7.96431e-06)
(0.00362198 -8.68649e-06 7.19961e-06)
(0.00359414 -7.2551e-06 6.51697e-06)
(0.00356894 -5.97822e-06 5.93115e-06)
(0.00354605 -4.9057e-06 5.44927e-06)
(0.00352515 -4.04994e-06 5.05707e-06)
(0.00350598 -3.38541e-06 4.71363e-06)
(0.00348845 -2.8655e-06 4.36429e-06)
(0.00347258 -2.44393e-06 3.96743e-06)
(0.00345845 -2.08728e-06 3.50992e-06)
(0.00344614 -1.78084e-06 3.00809e-06)
(0.00343568 -1.52749e-06 2.4948e-06)
(0.003427 -1.33624e-06 1.98818e-06)
(0.00342002 -1.20126e-06 1.49299e-06)
(0.00685385 -0.000100663 9.1603e-05)
(0.00648505 -8.95804e-05 8.06715e-05)
(0.00616066 -8.01747e-05 7.12429e-05)
(0.00587431 -7.21542e-05 6.30716e-05)
(0.00562068 -6.53091e-05 5.59891e-05)
(0.0053952 -5.94701e-05 4.98595e-05)
(0.00519403 -5.44589e-05 4.45366e-05)
(0.00501399 -5.00883e-05 3.98744e-05)
(0.00485248 -4.61937e-05 3.57555e-05)
(0.00470732 -4.26601e-05 3.20991e-05)
(0.00457667 -3.94336e-05 2.88561e-05)
(0.00445884 -3.65053e-05 2.59982e-05)
(0.00435236 -3.38737e-05 2.34967e-05)
(0.00425588 -3.15161e-05 2.13066e-05)
(0.00416826 -2.93808e-05 1.93674e-05)
(0.00408857 -2.74016e-05 1.76153e-05)
(0.00401608 -2.55286e-05 1.60111e-05)
(0.0039501 -2.3737e-05 1.45517e-05)
(0.00389001 -2.20065e-05 1.32403e-05)
(0.00383526 -2.03137e-05 1.2062e-05)
(0.00378535 -1.86415e-05 1.0993e-05)
(0.00373988 -1.69761e-05 1.00106e-05)
(0.00369853 -1.5304e-05 9.0983e-06)
(0.00366099 -1.36219e-05 8.25512e-06)
(0.00362698 -1.19485e-05 7.49006e-06)
(0.00359619 -1.03285e-05 6.80914e-06)
(0.00356831 -8.82892e-06 6.21558e-06)
(0.00354301 -7.51937e-06 5.70984e-06)
(0.00351996 -6.44624e-06 5.28486e-06)
(0.00349887 -5.61367e-06 4.92459e-06)
(0.00347952 -4.97781e-06 4.59809e-06)
(0.0034618 -4.46075e-06 4.25904e-06)
(0.00344573 -3.98202e-06 3.86787e-06)
(0.00343141 -3.49052e-06 3.4155e-06)
(0.00341893 -2.97706e-06 2.92424e-06)
(0.00340832 -2.46046e-06 2.42537e-06)
(0.00339954 -1.95768e-06 1.93059e-06)
(0.0033925 -1.4755e-06 1.43549e-06)
(0.00676097 -0.000106109 8.11839e-05)
(0.00639365 -9.46016e-05 7.13593e-05)
(0.00607064 -8.46659e-05 6.28951e-05)
(0.00578558 -7.60452e-05 5.55729e-05)
(0.00553317 -6.8568e-05 4.92372e-05)
(0.00530884 -6.21051e-05 4.37605e-05)
(0.00510876 -5.65047e-05 3.90091e-05)
(0.00492972 -5.15912e-05 3.48519e-05)
(0.00476913 -4.72072e-05 3.11866e-05)
(0.00462482 -4.32453e-05 2.79438e-05)
(0.00449492 -3.96588e-05 2.50777e-05)
(0.00437777 -3.64427e-05 2.25542e-05)
(0.00427188 -3.35932e-05 2.03385e-05)
(0.00417593 -3.10785e-05 1.83903e-05)
(0.00408879 -2.88295e-05 1.66645e-05)
(0.00400953 -2.67558e-05 1.51132e-05)
(0.0039374 -2.47905e-05 1.37016e-05)
(0.00387173 -2.2913e-05 1.24207e-05)
(0.00381194 -2.11227e-05 1.12714e-05)
(0.00375745 -1.94129e-05 1.02444e-05)
(0.00370778 -1.77699e-05 9.3227e-06)
(0.00366254 -1.61734e-05 8.48664e-06)
(0.00362138 -1.46013e-05 7.71842e-06)
(0.00358404 -1.3048e-05 7.01402e-06)
(0.00355022 -1.15341e-05 6.38249e-06)
(0.0035196 -1.01031e-05 5.83267e-06)
(0.00349185 -8.81048e-06 5.36562e-06)
(0.0034666 -7.70383e-06 4.97153e-06)
(0.00344354 -6.80614e-06 4.63201e-06)
(0.00342238 -6.10881e-06 4.32886e-06)
(0.0034029 -5.56448e-06 4.04073e-06)
(0.00338502 -5.09049e-06 3.73583e-06)
(0.00336877 -4.60034e-06 3.38563e-06)
(0.00335425 -4.04606e-06 2.98674e-06)
(0.00334159 -3.43093e-06 2.56036e-06)
(0.00333083 -2.78275e-06 2.13127e-06)
(0.00332194 -2.11422e-06 1.71075e-06)
(0.00331486 -1.43157e-06 1.29326e-06)
(0.00629973 -6.02979e-05 5.89539e-05)
(0.00594684 -5.39078e-05 5.13876e-05)
(0.00563643 -4.83186e-05 4.49362e-05)
(0.00536248 -4.34061e-05 3.94147e-05)
(0.00511992 -3.90928e-05 3.46867e-05)
(0.0049044 -3.53266e-05 3.06376e-05)
(0.00471217 -3.20378e-05 2.71538e-05)
(0.00454015 -2.91358e-05 2.41294e-05)
(0.00438583 -2.65378e-05 2.14833e-05)
(0.00424714 -2.41895e-05 1.91607e-05)
(0.00412231 -2.2068e-05 1.71236e-05)
(0.00400974 -2.01713e-05 1.53386e-05)
(0.00390798 -1.8496e-05 1.37707e-05)
(0.00381577 -1.70229e-05 1.23876e-05)
(0.003732 -1.57128e-05 1.11637e-05)
(0.00365577 -1.45109e-05 1.00754e-05)
(0.00358635 -1.33739e-05 9.10247e-06)
(0.00352313 -1.22906e-05 8.23395e-06)
(0.00346553 -1.12675e-05 7.46284e-06)
(0.00341304 -1.03078e-05 6.77921e-06)
(0.00336518 -9.40751e-06 6.17082e-06)
(0.00332157 -8.55518e-06 5.62353e-06)
(0.0032819 -7.73377e-06 5.12429e-06)
(0.00324591 -6.93505e-06 4.6699e-06)
(0.00321335 -6.16821e-06 4.26717e-06)
(0.0031839 -5.45548e-06 3.92336e-06)
(0.00315721 -4.82311e-06 3.63835e-06)
(0.0031329 -4.28846e-06 3.4012e-06)
(0.00311063 -3.85309e-06 3.19382e-06)
(0.00309011 -3.50625e-06 3.00091e-06)
(0.00307114 -3.22295e-06 2.81094e-06)
(0.00305364 -2.96035e-06 2.6087e-06)
(0.00303763 -2.6721e-06 2.37941e-06)
(0.00302327 -2.33487e-06 2.12093e-06)
(0.00301072 -1.95744e-06 1.8468e-06)
(0.00300005 -1.56036e-06 1.57393e-06)
(0.00299126 -1.14855e-06 1.31586e-06)
(0.00298427 -7.18168e-07 1.07464e-06)
(0.0075275 4.54797e-05 0.000229224)
(0.0070879 4.00347e-05 0.00019945)
(0.00670342 3.54123e-05 0.000174295)
(0.00636562 3.14833e-05 0.000152957)
(0.00606755 2.81198e-05 0.000134775)
(0.00580348 2.52213e-05 0.000119215)
(0.00556865 2.27102e-05 0.000105846)
(0.00535908 2.0523e-05 9.43096e-05)
(0.00517143 1.86077e-05 8.43041e-05)
(0.00500293 1.69213e-05 7.55823e-05)
(0.00485123 1.54239e-05 6.7943e-05)
(0.00471435 1.40794e-05 6.12172e-05)
(0.00459062 1.28629e-05 5.52577e-05)
(0.00447864 1.17635e-05 4.99424e-05)
(0.00437715 1.07794e-05 4.51811e-05)
(0.00428505 9.90702e-06 4.09076e-05)
(0.00420137 9.13246e-06 3.7064e-05)
(0.00412523 8.43511e-06 3.35958e-05)
(0.00405592 7.79743e-06 3.04589e-05)
(0.0039928 7.20389e-06 2.7617e-05)
(0.00393534 6.63715e-06 2.50304e-05)
(0.00388307 6.08637e-06 2.26592e-05)
(0.00383561 5.55356e-06 2.04794e-05)
(0.00379259 5.04849e-06 1.8487e-05)
(0.00375365 4.58532e-06 1.6684e-05)
(0.00371842 4.18134e-06 1.50641e-05)
(0.00368651 3.84796e-06 1.36085e-05)
(0.0036576 3.581e-06 1.22923e-05)
(0.00363137 3.36005e-06 1.10922e-05)
(0.00360758 3.15689e-06 9.98817e-06)
(0.00358606 2.94651e-06 8.96317e-06)
(0.00356665 2.70919e-06 8.00692e-06)
(0.00354928 2.42961e-06 7.11758e-06)
(0.00353388 2.10344e-06 6.30174e-06)
(0.00352039 1.74357e-06 5.57312e-06)
(0.00350873 1.37095e-06 4.94294e-06)
(0.00349875 1.0145e-06 4.41633e-06)
(0.0034903 6.92763e-07 3.9836e-06)
(0.00791941 8.44891e-05 0.000292535)
(0.00746164 7.39566e-05 0.000255504)
(0.00706157 6.5085e-05 0.000224142)
(0.00671031 5.76046e-05 0.000197456)
(0.00640056 5.12602e-05 0.000174635)
(0.00612631 4.5842e-05 0.000155031)
(0.00588257 4.11832e-05 0.000138119)
(0.00566519 3.71497e-05 0.000123463)
(0.0054707 3.36316e-05 0.000110705)
(0.00529619 3.05364e-05 9.95539e-05)
(0.00513921 2.77849e-05 8.97572e-05)
(0.0049977 2.53156e-05 8.10927e-05)
(0.00486991 2.30901e-05 7.33772e-05)
(0.00475434 2.10926e-05 6.64763e-05)
(0.00464967 1.93182e-05 6.02931e-05)
(0.00455472 1.77571e-05 5.47422e-05)
(0.00446849 1.63824e-05 4.97368e-05)
(0.00439008 1.51573e-05 4.52002e-05)
(0.00431874 1.40476e-05 4.10765e-05)
(0.0042538 1.30212e-05 3.73137e-05)
(0.00419471 1.20467e-05 3.38547e-05)
(0.00414096 1.11039e-05 3.06596e-05)
(0.00409213 1.01911e-05 2.77203e-05)
(0.0040478 9.3206e-06 2.50388e-05)
(0.00400761 8.51461e-06 2.26105e-05)
(0.00397118 7.80044e-06 2.04265e-05)
(0.00393819 7.19525e-06 1.84731e-05)
(0.0039083 6.69433e-06 1.67234e-05)
(0.00388125 6.27218e-06 1.51331e-05)
(0.00385679 5.89171e-06 1.36509e-05)
(0.00383471 5.51313e-06 1.22425e-05)
(0.00381485 5.09635e-06 1.08967e-05)
(0.0037971 4.60637e-06 9.61391e-06)
(0.00378135 4.02876e-06 8.40545e-06)
(0.00376751 3.37831e-06 7.29443e-06)
(0.00375551 2.68985e-06 6.30096e-06)
(0.0037452 2.01259e-06 5.44041e-06)
(0.00373646 1.38221e-06 4.71413e-06)
(0.00797411 8.75982e-05 0.000321656)
(0.00751578 7.63791e-05 0.000281105)
(0.0071151 6.69709e-05 0.000246806)
(0.00676318 5.90701e-05 0.000217656)
(0.00645278 5.23991e-05 0.000192745)
(0.00617791 4.67262e-05 0.000171341)
(0.0059336 4.18648e-05 0.000152855)
(0.00571574 3.76642e-05 0.000136815)
(0.00552084 3.39997e-05 0.000122845)
(0.00534601 3.07676e-05 0.000110621)
(0.00518881 2.78864e-05 9.98512e-05)
(0.00504718 2.53015e-05 9.02884e-05)
(0.00491935 2.29836e-05 8.17492e-05)
(0.0048038 2.09216e-05 7.41123e-05)
(0.00469918 1.91115e-05 6.72885e-05)
(0.00460431 1.75416e-05 6.11842e-05)
(0.00451817 1.61825e-05 5.56896e-05)
(0.00443986 1.49937e-05 5.07048e-05)
(0.00436862 1.39357e-05 4.61627e-05)
(0.00430379 1.29726e-05 4.20059e-05)
(0.00424479 1.2071e-05 3.81728e-05)
(0.00419113 1.12071e-05 3.4625e-05)
(0.00414235 1.03705e-05 3.13559e-05)
(0.00409803 9.56363e-06 2.83632e-05)
(0.00405781 8.80195e-06 2.56378e-05)
(0.00402132 8.10899e-06 2.31745e-05)
(0.00398827 7.50343e-06 2.09664e-05)
(0.00395835 6.98994e-06 1.89878e-05)
(0.00393129 6.55818e-06 1.71881e-05)
(0.00390685 6.18417e-06 1.55133e-05)
(0.00388481 5.8313e-06 1.39338e-05)
(0.003865 5.45198e-06 1.24346e-05)
(0.00384728 4.99759e-06 1.09973e-05)
(0.00383153 4.4385e-06 9.61731e-06)
(0.00381768 3.77699e-06 8.3151e-06)
(0.00380563 3.04381e-06 7.1218e-06)
(0.00379527 2.29093e-06 6.07352e-06)
(0.00378648 1.56633e-06 5.18545e-06)
(0.00797796 7.23493e-05 0.000332638)
(0.00752109 6.29729e-05 0.000290692)
(0.00712154 5.50849e-05 0.000255269)
(0.00677049 4.84374e-05 0.000225199)
(0.00646075 4.28057e-05 0.000199522)
(0.0061864 3.80046e-05 0.000177465)
(0.00594254 3.38811e-05 0.000158414)
(0.00572504 3.03083e-05 0.000141887)
(0.00553048 2.71799e-05 0.000127487)
(0.00535598 2.44113e-05 0.000114863)
(0.0051991 2.19414e-05 0.0001037)
(0.00505781 1.97339e-05 9.37562e-05)
(0.00493034 1.77722e-05 8.4872e-05)
(0.00481515 1.60501e-05 7.6942e-05)
(0.00471089 1.4563e-05 6.98801e-05)
(0.00461635 1.32982e-05 6.3585e-05)
(0.00453052 1.22297e-05 5.79329e-05)
(0.0044525 1.13227e-05 5.2815e-05)
(0.00438152 1.05419e-05 4.81591e-05)
(0.00431693 9.85455e-06 4.38982e-05)
(0.00425815 9.23062e-06 3.99637e-05)
(0.00420468 8.64697e-06 3.63213e-05)
(0.00415605 8.08836e-06 3.29672e-05)
(0.00411184 7.54699e-06 2.9886e-05)
(0.0040717 7.02568e-06 2.70516e-05)
(0.00403528 6.53821e-06 2.44541e-05)
(0.00400229 6.1022e-06 2.20976e-05)
(0.00397245 5.73116e-06 1.99733e-05)
(0.00394547 5.42798e-06 1.80473e-05)
(0.00392111 5.17989e-06 1.62833e-05)
(0.00389914 4.95641e-06 1.4661e-05)
(0.00387938 4.71144e-06 1.31506e-05)
(0.00386167 4.3939e-06 1.17029e-05)
(0.00384592 3.96718e-06 1.02894e-05)
(0.00383204 3.42241e-06 8.92002e-06)
(0.00381995 2.78049e-06 7.6303e-06)
(0.00380957 2.08512e-06 6.46925e-06)
(0.00380079 1.38856e-06 5.4636e-06)
(0.00797353 4.67225e-05 0.000336411)
(0.00751793 4.05406e-05 0.000293966)
(0.0071194 3.52918e-05 0.000258153)
(0.00676915 3.08234e-05 0.000227758)
(0.00646006 2.7e-05 0.000201804)
(0.00618625 2.371e-05 0.000179518)
(0.00594283 2.08602e-05 0.000160284)
(0.00572571 1.83709e-05 0.000143605)
(0.00553149 1.61771e-05 0.000129058)
(0.0053573 1.42299e-05 0.000116266)
(0.00520073 1.24981e-05 0.000104919)
(0.00505974 1.09664e-05 9.48022e-05)
(0.00493258 9.62966e-06 8.57752e-05)
(0.0048177 8.48512e-06 7.77356e-05)
(0.00471373 7.52714e-06 7.05898e-05)
(0.00461948 6.74433e-06 6.42311e-05)
(0.0045339 6.11788e-06 5.85384e-05)
(0.00445611 5.62366e-06 5.34088e-05)
(0.00438534 5.2369e-06 4.87636e-05)
(0.00432093 4.93373e-06 4.45158e-05)
(0.00426231 4.69067e-06 4.0588e-05)
(0.00420896 4.48671e-06 3.6957e-05)
(0.00416043 4.30447e-06 3.36236e-05)
(0.0041163 4.13064e-06 3.05532e-05)
(0.00407621 3.9594e-06 2.76928e-05)
(0.00403984 3.79489e-06 2.50224e-05)
(0.0040069 3.64865e-06 2.25596e-05)
(0.00397712 3.53384e-06 2.03241e-05)
(0.00395022 3.4574e-06 1.83151e-05)
(0.00392592 3.41293e-06 1.65219e-05)
(0.00390399 3.37793e-06 1.49244e-05)
(0.00388423 3.31423e-06 1.3467e-05)
(0.0038665 3.17738e-06 1.20711e-05)
(0.0038507 2.93309e-06 1.06878e-05)
(0.00383675 2.56854e-06 9.31316e-06)
(0.00382461 2.09583e-06 7.97593e-06)
(0.00381419 1.54717e-06 6.72739e-06)
(0.0038054 9.68945e-07 5.60599e-06)
(0.00751509 1.45826e-05 0.00029481)
(0.00711705 1.24824e-05 0.000258884)
(0.00676721 1.06134e-05 0.000228363)
(0.00645847 8.94435e-06 0.000202279)
(0.00618495 7.44818e-06 0.000179887)
(0.00594178 6.10345e-06 0.000160579)
(0.00572489 4.89323e-06 0.000143841)
(0.00553086 3.80578e-06 0.00012922)
(0.00535687 2.83529e-06 0.000116333)
(0.0052005 1.98226e-06 0.000104892)
(0.00505973 1.25152e-06 9.47029e-05)
(0.00493277 6.47234e-07 8.56332e-05)
(0.00481809 1.68245e-07 7.75728e-05)
(0.00471431 -1.92025e-07 7.04167e-05)
(0.00462024 -4.42583e-07 6.40533e-05)
(0.00453482 -5.93274e-07 5.83693e-05)
(0.00445718 -6.54116e-07 5.3271e-05)
(0.00438654 -6.34743e-07 4.86734e-05)
(0.00432224 -5.46715e-07 4.44743e-05)
(0.00426371 -4.05766e-07 4.05936e-05)
(0.00421043 -2.28691e-07 3.70164e-05)
(0.00416195 -2.96794e-08 3.37408e-05)
(0.00411786 1.79746e-07 3.07139e-05)
(0.00407779 3.90809e-07 2.78651e-05)
(0.00404143 5.98798e-07 2.51688e-05)
(0.00400852 8.02725e-07 2.26512e-05)
(0.00397876 1.0035e-06 2.03564e-05)
(0.00395189 1.20035e-06 1.83168e-05)
(0.00392761 1.38664e-06 1.65426e-05)
(0.00390568 1.54664e-06 1.50048e-05)
(0.00388589 1.65585e-06 1.36221e-05)
(0.00386809 1.68618e-06 1.22956e-05)
(0.0038522 1.61727e-06 1.09627e-05)
(0.00383816 1.442e-06 9.60549e-06)
(0.00382593 1.16739e-06 8.24048e-06)
(0.00381546 8.13234e-07 6.91747e-06)
(0.00380665 4.10683e-07 5.68676e-06)
(0.00751468 -1.27582e-05 0.000295107)
(0.00711656 -1.15341e-05 0.000259135)
(0.00676667 -1.06318e-05 0.000228516)
(0.0064579 -9.98375e-06 0.000202311)
(0.00618437 -9.53708e-06 0.000179804)
(0.00594122 -9.24412e-06 0.000160404)
(0.00572435 -9.05749e-06 0.000143583)
(0.00553038 -8.93245e-06 0.000128877)
(0.00535645 -8.83032e-06 0.000115908)
(0.00520016 -8.71973e-06 0.000104402)
(0.00505948 -8.57892e-06 9.41762e-05)
(0.00493262 -8.39802e-06 8.50977e-05)
(0.00481803 -8.17723e-06 7.70526e-05)
(0.00471434 -7.92088e-06 6.99244e-05)
(0.00462033 -7.63087e-06 6.35892e-05)
(0.00453499 -7.30424e-06 5.79298e-05)
(0.00445741 -6.93525e-06 5.28557e-05)
(0.00438683 -6.51863e-06 4.82862e-05)
(0.00432259 -6.0539e-06 4.41248e-05)
(0.00426409 -5.5476e-06 4.02954e-05)
(0.00421084 -5.00901e-06 3.67759e-05)
(0.00416237 -4.44516e-06 3.35491e-05)
(0.00411828 -3.86227e-06 3.05562e-05)
(0.00407821 -3.2694e-06 2.77325e-05)
(0.00404184 -2.67985e-06 2.50561e-05)
(0.00400891 -2.11115e-06 2.25509e-05)
(0.00397914 -1.58224e-06 2.02673e-05)
(0.00395224 -1.10919e-06 1.82548e-05)
(0.00392792 -7.03348e-07 1.65321e-05)
(0.00390594 -3.7275e-07 1.50628e-05)
(0.00388607 -1.2331e-07 1.3751e-05)
(0.00386818 4.18514e-08 1.24877e-05)
(0.00385218 1.25613e-07 1.12003e-05)
(0.00383803 1.33595e-07 9.85864e-06)
(0.0038257 7.11351e-08 8.47241e-06)
(0.00381514 -5.46002e-08 7.09187e-06)
(0.00380628 -2.30705e-07 5.77371e-06)
(0.00751672 -3.90572e-05 0.000294744)
(0.00711795 -3.46089e-05 0.000258804)
(0.00676754 -3.09877e-05 0.000228148)
(0.00645836 -2.804e-05 0.000201861)
(0.00618453 -2.56477e-05 0.000179256)
(0.00594115 -2.3707e-05 0.000159763)
(0.00572412 -2.21141e-05 0.000142858)
(0.00553003 -2.07702e-05 0.000128081)
(0.00535602 -1.9592e-05 0.00011506)
(0.00519969 -1.8519e-05 0.000103524)
(0.00505898 -1.75177e-05 9.3289e-05)
(0.00493211 -1.6577e-05 8.42282e-05)
(0.00481751 -1.56951e-05 7.62291e-05)
(0.00471379 -1.48683e-05 6.91634e-05)
(0.00461976 -1.40838e-05 6.28858e-05)
(0.00453439 -1.33205e-05 5.72615e-05)
(0.0044568 -1.25579e-05 5.21981e-05)
(0.00438622 -1.17809e-05 4.76329e-05)
(0.00432197 -1.09807e-05 4.34948e-05)
(0.00426346 -1.01534e-05 3.97133e-05)
(0.00421019 -9.29801e-06 3.62457e-05)
(0.0041617 -8.41251e-06 3.30548e-05)
(0.00411759 -7.49779e-06 3.00896e-05)
(0.00407748 -6.56391e-06 2.73096e-05)
(0.00404108 -5.63325e-06 2.47024e-05)
(0.0040081 -4.74051e-06 2.22816e-05)
(0.00397827 -3.92563e-06 2.00843e-05)
(0.00395129 -3.22141e-06 1.81546e-05)
(0.00392688 -2.64501e-06 1.65097e-05)
(0.00390478 -2.19582e-06 1.51109e-05)
(0.00388478 -1.85838e-06 1.38621e-05)
(0.00386675 -1.60515e-06 1.26506e-05)
(0.00385062 -1.40419e-06 1.13941e-05)
(0.00383633 -1.23342e-06 1.00572e-05)
(0.00382388 -1.08778e-06 8.6536e-06)
(0.00381322 -9.71977e-07 7.23619e-06)
(0.00380429 -8.90486e-07 5.85547e-06)
(0.00379701 -8.40878e-07 4.54751e-06)
(0.00751906 -6.20563e-05 0.000291712)
(0.00711915 -5.48202e-05 0.000256097)
(0.00676783 -4.88045e-05 0.000225669)
(0.00645793 -4.37914e-05 0.000199533)
(0.00618353 -3.96232e-05 0.000177027)
(0.00593971 -3.61629e-05 0.000157605)
(0.00572235 -3.3266e-05 0.000140764)
(0.005528 -3.07887e-05 0.00012605)
(0.0053538 -2.86086e-05 0.0001131)
(0.00519731 -2.6643e-05 0.000101642)
(0.00505647 -2.48543e-05 9.1493e-05)
(0.00492948 -2.32336e-05 8.25314e-05)
(0.00481476 -2.17756e-05 7.46446e-05)
(0.00471093 -2.0463e-05 6.76953e-05)
(0.00461679 -1.92611e-05 6.1522e-05)
(0.00453133 -1.81263e-05 5.59731e-05)
(0.00445365 -1.70241e-05 5.09518e-05)
(0.004383 -1.59355e-05 4.64146e-05)
(0.00431868 -1.48486e-05 4.23185e-05)
(0.00426011 -1.3753e-05 3.8601e-05)
(0.00420677 -1.2639e-05 3.52029e-05)
(0.00415821 -1.14956e-05 3.20735e-05)
(0.00411404 -1.03187e-05 2.91718e-05)
(0.00407388 -9.12036e-06 2.6479e-05)
(0.00403742 -7.93252e-06 2.39925e-05)
(0.00400436 -6.80518e-06 2.17169e-05)
(0.00397442 -5.79446e-06 1.96701e-05)
(0.00394732 -4.94396e-06 1.78757e-05)
(0.00392276 -4.27275e-06 1.63374e-05)
(0.0039005 -3.77164e-06 1.50165e-05)