/*--------------------------------*- C++ -*----------------------------------*\
| =========                 |                                                 |
| \\      /  F ield         | OpenFOAM: The Open Source CFD Toolbox           |
|  \\    /   O peration     | Version:  2.3.1                                 |
|   \\  /    A nd           | Web:      www.OpenFOAM.org                      |
|    \\/     M anipulation  |                                                 |
\*---------------------------------------------------------------------------*/
FoamFile
{
    version     2.0;
    format      ascii;
    class       volVectorField;
    location    "20";
    object      U_0;
}
// * * * * * * * * * * * * * * * * * * * * * * * * * * * * * * * * * * * * * //

dimensions      [0 1 -1 0 0 0 0];

internalField   nonuniform List<vector> 
38262
(
(0.00670523 6.75023e-05 6.76239e-05)
(0.00630362 6.00738e-05 5.87291e-05)
(0.00595185 5.36304e-05 5.12238e-05)
(0.00564242 4.80373e-05 4.48654e-05)
(0.00536912 4.31559e-05 3.9453e-05)
(0.00512682 3.88766e-05 3.48293e-05)
(0.00491122 3.51128e-05 3.08679e-05)
(0.0047187 3.17903e-05 2.7461e-05)
(0.00454625 2.88462e-05 2.45152e-05)
(0.00439132 2.62283e-05 2.19539e-05)
(0.00425177 2.38881e-05 1.97166e-05)
(0.00412581 2.1779e-05 1.77527e-05)
(0.00401191 1.98667e-05 1.60167e-05)
(0.0039088 1.81357e-05 1.44692e-05)
(0.00381534 1.6581e-05 1.30816e-05)
(0.0037305 1.51923e-05 1.18353e-05)
(0.00365339 1.3946e-05 1.07139e-05)
(0.00358322 1.2814e-05 9.70187e-06)
(0.00351932 1.1776e-05 8.7871e-06)
(0.00346112 1.08141e-05 7.96027e-06)
(0.00340812 9.90663e-06 7.20887e-06)
(0.00335992 9.04042e-06 6.51832e-06)
(0.00331618 8.22085e-06 5.88092e-06)
(0.00327656 7.45839e-06 5.29876e-06)
(0.00324071 6.75849e-06 4.77647e-06)
(0.00320829 6.12804e-06 4.31349e-06)
(0.00317892 5.57698e-06 3.90307e-06)
(0.00315228 5.10665e-06 3.53547e-06)
(0.00312806 4.69969e-06 3.20155e-06)
(0.00310604 4.32444e-06 2.89363e-06)
(0.00308606 3.95192e-06 2.60517e-06)
(0.00306803 3.56424e-06 2.33243e-06)
(0.00305186 3.14953e-06 2.07609e-06)
(0.00303754 2.70312e-06 1.84123e-06)
(0.003025 2.23554e-06 1.63614e-06)
(0.00301416 1.76516e-06 1.46608e-06)
(0.00300488 1.31667e-06 1.33366e-06)
(0.00299697 9.09193e-07 1.2323e-06)
(0.00718281 0.000119826 9.21926e-05)
(0.00676443 0.000106079 8.07827e-05)
(0.00639808 9.42626e-05 7.10674e-05)
(0.00607588 8.41047e-05 6.27588e-05)
(0.00579136 7.53272e-05 5.56193e-05)
(0.00553914 6.76937e-05 4.94647e-05)
(0.00531474 6.10142e-05 4.41438e-05)
(0.0051144 5.51376e-05 3.95254e-05)
(0.00493498 4.99428e-05 3.54995e-05)
(0.00477384 4.53238e-05 3.19777e-05)
(0.00462874 4.11819e-05 2.88836e-05)
(0.00449782 3.7438e-05 2.61446e-05)
(0.0043795 3.40488e-05 2.36981e-05)
(0.00427244 3.10038e-05 2.15008e-05)
(0.00417544 2.83025e-05 1.95254e-05)
(0.0040874 2.59268e-05 1.77476e-05)
(0.00400739 2.38303e-05 1.61389e-05)
(0.00393459 2.19546e-05 1.46739e-05)
(0.00386831 2.02539e-05 1.33373e-05)
(0.00380795 1.86896e-05 1.21147e-05)
(0.00375301 1.72222e-05 1.09839e-05)
(0.00370305 1.58273e-05 9.9297e-06)
(0.0036577 1.4504e-05 8.95467e-06)
(0.00361659 1.32578e-05 8.06718e-06)
(0.00357936 1.20931e-05 7.26905e-06)
(0.00354565 1.10252e-05 6.55903e-06)
(0.00351512 1.00769e-05 5.93431e-06)
(0.00348742 9.25802e-06 5.38468e-06)
(0.00346228 8.55093e-06 4.88919e-06)
(0.00343946 7.91787e-06 4.42179e-06)
(0.0034188 7.31848e-06 3.96551e-06)
(0.00340018 6.71191e-06 3.5183e-06)
(0.00338352 6.05278e-06 3.08477e-06)
(0.00336875 5.30822e-06 2.67376e-06)
(0.00335583 4.4806e-06 2.29991e-06)
(0.00334465 3.6021e-06 1.97484e-06)
(0.00333508 2.72699e-06 1.70606e-06)
(0.00332694 1.90066e-06 1.49604e-06)
(0.00727671 0.000115169 0.000103824)
(0.00685653 0.000101406 9.11051e-05)
(0.00648855 8.96712e-05 8.02811e-05)
(0.00616485 7.9656e-05 7.10319e-05)
(0.00587892 7.10595e-05 6.30892e-05)
(0.0056254 6.36234e-05 5.62359e-05)
(0.00539981 5.71408e-05 5.02947e-05)
(0.0051984 5.14511e-05 4.51232e-05)
(0.00501804 4.64216e-05 4.06094e-05)
(0.00485606 4.19308e-05 3.66566e-05)
(0.00471023 3.7878e-05 3.31693e-05)
(0.0045787 3.42052e-05 3.006e-05)
(0.00445992 3.08997e-05 2.7267e-05)
(0.0043525 2.79694e-05 2.47568e-05)
(0.00425521 2.54173e-05 2.251e-05)
(0.00416694 2.3223e-05 2.05009e-05)
(0.0040867 2.13371e-05 1.86894e-05)
(0.00401369 1.96983e-05 1.70365e-05)
(0.00394721 1.82536e-05 1.55213e-05)
(0.00388668 1.69558e-05 1.41282e-05)
(0.00383157 1.57604e-05 1.28341e-05)
(0.00378145 1.46384e-05 1.16249e-05)
(0.00373594 1.35757e-05 1.05052e-05)
(0.00369466 1.25575e-05 9.48058e-06)
(0.00365723 1.15719e-05 8.55043e-06)
(0.00362333 1.06281e-05 7.71666e-06)
(0.00359263 9.75501e-06 6.98141e-06)
(0.00356481 8.98201e-06 6.33498e-06)
(0.00353958 8.32282e-06 5.75108e-06)
(0.00351672 7.77213e-06 5.20014e-06)
(0.00349603 7.30337e-06 4.66938e-06)
(0.00347736 6.85943e-06 4.15783e-06)
(0.00346063 6.35958e-06 3.66025e-06)
(0.00344576 5.73529e-06 3.1755e-06)
(0.00343271 4.96316e-06 2.71717e-06)
(0.00342142 4.06696e-06 2.30404e-06)
(0.00341176 3.10605e-06 1.95569e-06)
(0.00340356 2.14414e-06 1.68893e-06)
(0.00730112 9.00651e-05 0.000107279)
(0.00688147 7.91111e-05 9.40783e-05)
(0.00651388 6.97435e-05 8.28867e-05)
(0.00619042 6.17087e-05 7.33556e-05)
(0.00590463 5.47739e-05 6.51905e-05)
(0.00565117 4.87534e-05 5.81518e-05)
(0.0054256 4.34986e-05 5.20497e-05)
(0.0052242 3.88806e-05 4.67397e-05)
(0.00504381 3.47786e-05 4.21062e-05)
(0.0048818 3.10872e-05 3.8038e-05)
(0.00473598 2.77399e-05 3.4426e-05)
(0.00460451 2.47206e-05 3.11858e-05)
(0.00448585 2.20423e-05 2.82708e-05)
(0.0043786 1.97151e-05 2.56592e-05)
(0.00428148 1.77326e-05 2.3335e-05)
(0.00419336 1.60699e-05 2.12691e-05)
(0.00411326 1.46886e-05 1.94137e-05)
(0.00404036 1.35462e-05 1.77248e-05)
(0.00397398 1.25983e-05 1.61805e-05)
(0.00391351 1.17937e-05 1.47614e-05)
(0.00385845 1.10846e-05 1.34401e-05)
(0.00380837 1.04433e-05 1.22052e-05)
(0.00376287 9.85063e-06 1.10644e-05)
(0.00372155 9.27558e-06 1.00172e-05)
(0.00368407 8.68567e-06 9.05258e-06)
(0.00365012 8.07504e-06 8.16902e-06)
(0.0036194 7.4735e-06 7.37433e-06)
(0.0035916 6.93032e-06 6.66801e-06)
(0.00356644 6.49078e-06 6.03196e-06)
(0.00354365 6.17553e-06 5.44632e-06)
(0.00352302 5.96297e-06 4.90616e-06)
(0.00350436 5.7829e-06 4.40407e-06)
(0.00348756 5.53818e-06 3.91662e-06)
(0.00347257 5.14547e-06 3.42861e-06)
(0.00345939 4.56265e-06 2.94891e-06)
(0.00344798 3.79579e-06 2.49986e-06)
(0.00343824 2.89004e-06 2.10875e-06)
(0.00343 1.91702e-06 1.79989e-06)
(0.00730718 5.6029e-05 0.000108029)
(0.00688825 4.90468e-05 9.46937e-05)
(0.00652124 4.29973e-05 8.34077e-05)
(0.00619821 3.77159e-05 7.38014e-05)
(0.00591276 3.30778e-05 6.55731e-05)
(0.00565959 2.90012e-05 5.84854e-05)
(0.00543425 2.5418e-05 5.2352e-05)
(0.00523302 2.22482e-05 4.70241e-05)
(0.00505276 1.94052e-05 4.23711e-05)
(0.00489087 1.68269e-05 3.82664e-05)
(0.00474518 1.44964e-05 3.46014e-05)
(0.0046139 1.24319e-05 3.13081e-05)
(0.00449546 1.06547e-05 2.8354e-05)
(0.00438843 9.16689e-06 2.57184e-05)
(0.00429153 7.95097e-06 2.3379e-05)
(0.00420361 6.98127e-06 2.13036e-05)
(0.00412369 6.23413e-06 1.94467e-05)
(0.00405096 5.68762e-06 1.77708e-05)
(0.0039847 5.31016e-06 1.62527e-05)
(0.00392432 5.05782e-06 1.48605e-05)
(0.00386932 4.89099e-06 1.35584e-05)
(0.00381928 4.78552e-06 1.23423e-05)
(0.00377379 4.71675e-06 1.12271e-05)
(0.00373245 4.64567e-06 1.02031e-05)
(0.0036949 4.53411e-06 9.24182e-06)
(0.00366089 4.3704e-06 8.33315e-06)
(0.00363016 4.17856e-06 7.49135e-06)
(0.00360241 4.00887e-06 6.73211e-06)
(0.00357734 3.91555e-06 6.05697e-06)
(0.00355465 3.92631e-06 5.46241e-06)
(0.00353408 4.01864e-06 4.94501e-06)
(0.0035154 4.12003e-06 4.48157e-06)
(0.00349851 4.1378e-06 4.03051e-06)
(0.00348337 3.99311e-06 3.56717e-06)
(0.00347001 3.63802e-06 3.09482e-06)
(0.00345843 3.06396e-06 2.6318e-06)
(0.00344856 2.30162e-06 2.20682e-06)
(0.00344027 1.4204e-06 1.84541e-06)
(0.00688943 1.7706e-05 9.46625e-05)
(0.00652266 1.52529e-05 8.33684e-05)
(0.00619985 1.29461e-05 7.37391e-05)
(0.0059146 1.07815e-05 6.54785e-05)
(0.00566162 8.78095e-06 5.8367e-05)
(0.00543646 6.95985e-06 5.22266e-05)
(0.00523537 5.30403e-06 4.68986e-05)
(0.00505523 3.78713e-06 4.22341e-05)
(0.00489346 2.40437e-06 3.81012e-05)
(0.00474794 1.18077e-06 3.44039e-05)
(0.00461686 1.50198e-07 3.10899e-05)
(0.00449863 -6.6727e-07 2.81309e-05)
(0.0043918 -1.27441e-06 2.54995e-05)
(0.00429508 -1.69352e-06 2.31654e-05)
(0.00420731 -1.95266e-06 2.10934e-05)
(0.00412754 -2.07131e-06 1.92449e-05)
(0.00405494 -2.06005e-06 1.75907e-05)
(0.00398879 -1.93106e-06 1.61058e-05)
(0.00392849 -1.70232e-06 1.47464e-05)
(0.00387355 -1.39388e-06 1.3473e-05)
(0.00382354 -1.02915e-06 1.22887e-05)
(0.00377806 -6.39521e-07 1.12103e-05)
(0.00373668 -2.58229e-07 1.02177e-05)
(0.00369908 9.25226e-08 9.27018e-06)
(0.00366502 4.06763e-07 8.35276e-06)
(0.00363427 6.93645e-07 7.48396e-06)
(0.00360656 9.77932e-07 6.69303e-06)
(0.00358155 1.29154e-06 6.00092e-06)
(0.00355892 1.64848e-06 5.41796e-06)
(0.00353836 2.02288e-06 4.93597e-06)
(0.00351963 2.35617e-06 4.51517e-06)
(0.00350261 2.57965e-06 4.10239e-06)
(0.0034873 2.63485e-06 3.66862e-06)
(0.00347374 2.48278e-06 3.21093e-06)
(0.00346196 2.11234e-06 2.73958e-06)
(0.00345195 1.54556e-06 2.28261e-06)
(0.00344358 8.37516e-07 1.86682e-06)
(0.00688888 -1.44461e-05 9.48044e-05)
(0.00652195 -1.32027e-05 8.34945e-05)
(0.00619902 -1.24008e-05 7.38189e-05)
(0.00591372 -1.19439e-05 6.54984e-05)
(0.00566075 -1.17283e-05 5.83316e-05)
(0.00543564 -1.16661e-05 5.21497e-05)
(0.00523461 -1.16976e-05 4.67859e-05)
(0.00505454 -1.17775e-05 4.20815e-05)
(0.00489287 -1.18561e-05 3.79075e-05)
(0.00474748 -1.18815e-05 3.41791e-05)
(0.00461656 -1.18146e-05 3.08492e-05)
(0.00449849 -1.16348e-05 2.78883e-05)
(0.0043918 -1.13413e-05 2.52658e-05)
(0.0042952 -1.09542e-05 2.29458e-05)
(0.00420753 -1.05024e-05 2.0887e-05)
(0.00412784 -1.00065e-05 1.9049e-05)
(0.00405531 -9.46976e-06 1.74053e-05)
(0.00398924 -8.88028e-06 1.59322e-05)
(0.00392901 -8.22133e-06 1.45886e-05)
(0.00387412 -7.49089e-06 1.33386e-05)
(0.00382414 -6.71264e-06 1.21829e-05)
(0.00377865 -5.92005e-06 1.11291e-05)
(0.00373725 -5.13049e-06 1.01515e-05)
(0.00369963 -4.34151e-06 9.21331e-06)
(0.00366555 -3.5508e-06 8.30349e-06)
(0.00363479 -2.76957e-06 7.43885e-06)
(0.00360707 -2.01312e-06 6.65008e-06)
(0.00358206 -1.29097e-06 5.96797e-06)
(0.00355942 -6.1431e-07 5.40888e-06)
(0.00353881 -6.57127e-09 4.9604e-06)
(0.00351998 5.00996e-07 4.57346e-06)
(0.00350281 8.75238e-07 4.19039e-06)
(0.00348731 1.0871e-06 3.779e-06)
(0.00347355 1.11698e-06 3.33007e-06)
(0.00346159 9.62687e-07 2.84935e-06)
(0.00345141 6.40215e-07 2.36478e-06)
(0.00344295 1.82303e-07 1.90638e-06)
(0.00688664 -4.63706e-05 9.5062e-05)
(0.00651918 -4.14419e-05 8.37286e-05)
(0.00619583 -3.74823e-05 7.40009e-05)
(0.00591023 -3.43131e-05 6.56101e-05)
(0.00565708 -3.17721e-05 5.83688e-05)
(0.00543187 -2.97155e-05 5.21179e-05)
(0.00523079 -2.80179e-05 4.66922e-05)
(0.00505073 -2.6569e-05 4.19335e-05)
(0.00488911 -2.52728e-05 3.7717e-05)
(0.00474381 -2.40555e-05 3.39598e-05)
(0.00461299 -2.28712e-05 3.06128e-05)
(0.00449502 -2.16977e-05 2.76473e-05)
(0.00438842 -2.05307e-05 2.5036e-05)
(0.00429187 -1.93819e-05 2.27392e-05)
(0.00420423 -1.82691e-05 2.07034e-05)
(0.00412455 -1.72017e-05 1.88762e-05)
(0.00405204 -1.61717e-05 1.72271e-05)
(0.00398601 -1.51499e-05 1.57421e-05)
(0.00392584 -1.40977e-05 1.43969e-05)
(0.003871 -1.29962e-05 1.31625e-05)
(0.00382104 -1.18603e-05 1.20268e-05)
(0.00377555 -1.07133e-05 1.09817e-05)
(0.00373415 -9.55608e-06 1.00044e-05)
(0.00369654 -8.37273e-06 9.07509e-06)
(0.00366248 -7.16076e-06 8.19177e-06)
(0.0036317 -5.94936e-06 7.36465e-06)
(0.00360393 -4.78825e-06 6.61467e-06)
(0.00357886 -3.72647e-06 5.96879e-06)
(0.00355612 -2.80021e-06 5.44282e-06)
(0.00353539 -2.02701e-06 5.02292e-06)
(0.00351641 -1.40854e-06 4.66062e-06)
(0.00349908 -9.38386e-07 4.29828e-06)
(0.00348339 -6.09874e-07 3.89847e-06)
(0.00346945 -4.15927e-07 3.44799e-06)
(0.00345731 -3.46903e-07 2.95539e-06)
(0.00344699 -3.93854e-07 2.45089e-06)
(0.00343843 -5.48341e-07 1.96128e-06)
(0.00343149 -7.82232e-07 1.50276e-06)
(0.00687884 -7.73734e-05 9.4552e-05)
(0.00651064 -6.89322e-05 8.32833e-05)
(0.0061867 -6.18928e-05 7.35868e-05)
(0.00590066 -5.60099e-05 6.52e-05)
(0.00564721 -5.10857e-05 5.79438e-05)
(0.00542181 -4.69482e-05 5.16709e-05)
(0.00522064 -4.34316e-05 4.62249e-05)
(0.00504055 -4.03777e-05 4.14521e-05)
(0.00487895 -3.76516e-05 3.72302e-05)
(0.0047337 -3.51563e-05 3.34748e-05)
(0.00460294 -3.28389e-05 3.01354e-05)
(0.00448504 -3.06808e-05 2.71866e-05)
(0.00437849 -2.86786e-05 2.46036e-05)
(0.00428196 -2.68283e-05 2.23426e-05)
(0.0041943 -2.51161e-05 2.034e-05)
(0.0041146 -2.3518e-05 1.85317e-05)
(0.00404209 -2.20067e-05 1.68819e-05)
(0.00397608 -2.05503e-05 1.53866e-05)
(0.00391595 -1.91111e-05 1.40403e-05)
(0.00386115 -1.76625e-05 1.28207e-05)
(0.00381121 -1.62015e-05 1.17044e-05)
(0.00376572 -1.47325e-05 1.06714e-05)
(0.00372435 -1.32474e-05 9.70466e-06)
(0.00368678 -1.17343e-05 8.79978e-06)
(0.00365273 -1.02002e-05 7.96249e-06)
(0.00362194 -8.68458e-06 7.19792e-06)
(0.00359411 -7.25332e-06 6.5154e-06)
(0.00356892 -5.97658e-06 5.92969e-06)
(0.00354603 -4.90423e-06 5.44791e-06)
(0.00352513 -4.04863e-06 5.0558e-06)
(0.00350597 -3.38425e-06 4.71243e-06)
(0.00348845 -2.86446e-06 4.36314e-06)
(0.00347258 -2.443e-06 3.96633e-06)
(0.00345845 -2.08645e-06 3.50885e-06)
(0.00344615 -1.78012e-06 3.00707e-06)
(0.00343569 -1.52688e-06 2.49383e-06)
(0.00342702 -1.33573e-06 1.98725e-06)
(0.00342004 -1.20084e-06 1.49209e-06)
(0.00685302 -0.000100638 9.15796e-05)
(0.00648432 -8.95587e-05 8.06511e-05)
(0.00616001 -8.01556e-05 7.12252e-05)
(0.00587374 -7.21374e-05 6.30561e-05)
(0.00562017 -6.52941e-05 5.59755e-05)
(0.00539475 -5.94569e-05 4.98476e-05)
(0.00519363 -5.44471e-05 4.45262e-05)
(0.00501363 -5.00777e-05 3.98651e-05)
(0.00485216 -4.61842e-05 3.57472e-05)
(0.00470704 -4.26516e-05 3.20918e-05)
(0.00457641 -3.94259e-05 2.88495e-05)
(0.00445862 -3.64983e-05 2.59924e-05)
(0.00435216 -3.38673e-05 2.34915e-05)
(0.00425569 -3.15102e-05 2.13019e-05)
(0.00416809 -2.93754e-05 1.93632e-05)
(0.00408843 -2.73966e-05 1.76114e-05)
(0.00401595 -2.5524e-05 1.60076e-05)
(0.00394998 -2.37327e-05 1.45485e-05)
(0.00388991 -2.20025e-05 1.32374e-05)
(0.00383517 -2.03101e-05 1.20594e-05)
(0.00378527 -1.86382e-05 1.09906e-05)
(0.00373981 -1.69732e-05 1.00084e-05)
(0.00369847 -1.53013e-05 9.0963e-06)
(0.00366094 -1.36194e-05 8.25325e-06)
(0.00362694 -1.19461e-05 7.48833e-06)
(0.00359615 -1.03263e-05 6.80754e-06)
(0.00356828 -8.82691e-06 6.2141e-06)
(0.00354299 -7.51754e-06 5.70846e-06)
(0.00351995 -6.44458e-06 5.28357e-06)
(0.00349886 -5.61218e-06 4.92338e-06)
(0.00347951 -4.97647e-06 4.59695e-06)
(0.00346179 -4.45953e-06 4.25794e-06)
(0.00344573 -3.98092e-06 3.86681e-06)
(0.00343141 -3.48953e-06 3.41447e-06)
(0.00341895 -2.97619e-06 2.92326e-06)
(0.00340834 -2.45972e-06 2.42442e-06)
(0.00339956 -1.95706e-06 1.92968e-06)
(0.00339252 -1.47498e-06 1.4346e-06)
(0.00676016 -0.000106084 8.11629e-05)
(0.00639294 -9.458e-05 7.13411e-05)
(0.00607 -8.46467e-05 6.28793e-05)
(0.00578502 -7.60282e-05 5.55591e-05)
(0.00553267 -6.85529e-05 4.92252e-05)
(0.0053084 -6.20917e-05 4.375e-05)
(0.00510837 -5.64928e-05 3.89998e-05)
(0.00492938 -5.15805e-05 3.48437e-05)
(0.00476882 -4.71975e-05 3.11794e-05)
(0.00462455 -4.32366e-05 2.79373e-05)
(0.00449467 -3.9651e-05 2.50719e-05)
(0.00437755 -3.64356e-05 2.25491e-05)
(0.00427169 -3.35868e-05 2.03339e-05)
(0.00417576 -3.10727e-05 1.83862e-05)
(0.00408864 -2.88241e-05 1.66608e-05)
(0.0040094 -2.67509e-05 1.51099e-05)
(0.00393728 -2.47859e-05 1.36985e-05)
(0.00387163 -2.29089e-05 1.24179e-05)
(0.00381185 -2.1119e-05 1.12689e-05)
(0.00375737 -1.94095e-05 1.02421e-05)
(0.00370771 -1.77668e-05 9.32063e-06)
(0.00366248 -1.61706e-05 8.48474e-06)
(0.00362133 -1.45987e-05 7.71667e-06)
(0.00358399 -1.30456e-05 7.01239e-06)
(0.00355018 -1.15319e-05 6.38098e-06)
(0.00351957 -1.0101e-05 5.83127e-06)
(0.00349183 -8.80858e-06 5.36431e-06)
(0.00346659 -7.7021e-06 4.97031e-06)
(0.00344354 -6.80457e-06 4.63087e-06)
(0.00342238 -6.1074e-06 4.32778e-06)
(0.00340291 -5.5632e-06 4.0397e-06)
(0.00338503 -5.08932e-06 3.73483e-06)
(0.00336878 -4.59927e-06 3.38467e-06)
(0.00335427 -4.04509e-06 2.9858e-06)
(0.00334161 -3.43007e-06 2.55946e-06)
(0.00333085 -2.782e-06 2.13039e-06)
(0.00332197 -2.11358e-06 1.70989e-06)
(0.00331489 -1.43102e-06 1.29241e-06)
(0.00629898 -6.0285e-05 5.89374e-05)
(0.00594618 -5.38963e-05 5.13735e-05)
(0.00563585 -4.83083e-05 4.4924e-05)
(0.00536196 -4.3397e-05 3.94042e-05)
(0.00511947 -3.90846e-05 3.46776e-05)
(0.004904 -3.53193e-05 3.06297e-05)
(0.00471182 -3.20313e-05 2.71469e-05)
(0.00453984 -2.91299e-05 2.41234e-05)
(0.00438555 -2.65326e-05 2.1478e-05)
(0.0042469 -2.41847e-05 1.91559e-05)
(0.0041221 -2.20638e-05 1.71194e-05)
(0.00400955 -2.01675e-05 1.53349e-05)
(0.00390782 -1.84925e-05 1.37673e-05)
(0.00381562 -1.70198e-05 1.23847e-05)
(0.00373188 -1.57099e-05 1.11611e-05)
(0.00365566 -1.45083e-05 1.0073e-05)
(0.00358626 -1.33715e-05 9.1003e-06)
(0.00352305 -1.22884e-05 8.232e-06)
(0.00346547 -1.12655e-05 7.46106e-06)
(0.00341299 -1.03059e-05 6.7776e-06)
(0.00336514 -9.40585e-06 6.16934e-06)
(0.00332154 -8.55367e-06 5.62216e-06)
(0.00328188 -7.73238e-06 5.12302e-06)
(0.0032459 -6.93377e-06 4.66873e-06)
(0.00321334 -6.16703e-06 4.26607e-06)
(0.0031839 -5.45439e-06 3.92234e-06)
(0.00315721 -4.82211e-06 3.6374e-06)
(0.00313291 -4.28756e-06 3.4003e-06)
(0.00311064 -3.85227e-06 3.19297e-06)
(0.00309013 -3.50551e-06 3.0001e-06)
(0.00307117 -3.22228e-06 2.81015e-06)
(0.00305367 -2.95973e-06 2.60793e-06)
(0.00303766 -2.67153e-06 2.37865e-06)
(0.00302331 -2.33435e-06 2.12018e-06)
(0.00301076 -1.95698e-06 1.84606e-06)
(0.0030001 -1.55996e-06 1.57319e-06)
(0.00299131 -1.1482e-06 1.31512e-06)
(0.00298433 -7.17853e-07 1.07391e-06)
(0.0075265 4.54685e-05 0.000229159)
(0.00708703 4.00248e-05 0.000199394)
(0.00670265 3.54036e-05 0.000174247)
(0.00636494 3.14757e-05 0.000152916)
(0.00606695 2.81131e-05 0.000134739)
(0.00580295 2.52154e-05 0.000119184)
(0.00556818 2.2705e-05 0.000105819)
(0.00535865 2.05183e-05 9.42859e-05)
(0.00517106 1.86036e-05 8.42833e-05)
(0.0050026 1.69176e-05 7.5564e-05)
(0.00485093 1.54206e-05 6.79268e-05)
(0.00471408 1.40765e-05 6.12028e-05)
(0.00459038 1.28603e-05 5.52447e-05)
(0.00447842 1.17611e-05 4.99308e-05)
(0.00437695 1.07772e-05 4.51707e-05)
(0.00428488 9.90505e-06 4.08982e-05)
(0.00420122 9.13068e-06 3.70555e-05)
(0.0041251 8.43349e-06 3.35882e-05)
(0.0040558 7.79596e-06 3.0452e-05)
(0.00399269 7.20254e-06 2.76107e-05)
(0.00393524 6.63593e-06 2.50246e-05)
(0.00388299 6.08525e-06 2.26539e-05)
(0.00383553 5.55253e-06 2.04745e-05)
(0.00379253 5.04755e-06 1.84825e-05)
(0.0037536 4.58446e-06 1.66799e-05)
(0.00371837 4.18055e-06 1.50603e-05)
(0.00368648 3.84723e-06 1.36049e-05)
(0.00365757 3.58032e-06 1.2289e-05)
(0.00363134 3.35942e-06 1.10891e-05)
(0.00360757 3.1563e-06 9.98525e-06)
(0.00358604 2.94596e-06 8.96042e-06)
(0.00356664 2.70868e-06 8.00432e-06)
(0.00354927 2.42914e-06 7.11512e-06)
(0.00353388 2.10302e-06 6.29938e-06)
(0.0035204 1.7432e-06 5.57083e-06)
(0.00350874 1.37063e-06 4.9407e-06)
(0.00349877 1.01423e-06 4.4141e-06)
(0.00349031 6.92539e-07 3.98137e-06)
(0.00791836 8.44674e-05 0.000292454)
(0.00746071 7.39376e-05 0.000255434)
(0.00706075 6.50684e-05 0.000224082)
(0.00670959 5.75901e-05 0.000197404)
(0.00639992 5.12476e-05 0.00017459)
(0.00612574 4.58309e-05 0.000154992)
(0.00588206 4.11734e-05 0.000138085)
(0.00566473 3.7141e-05 0.000123433)
(0.00547029 3.36239e-05 0.000110679)
(0.00529582 3.05296e-05 9.95304e-05)
(0.00513888 2.77789e-05 8.97364e-05)
(0.0049974 2.53101e-05 8.10742e-05)
(0.00486965 2.30852e-05 7.33606e-05)
(0.0047541 2.10882e-05 6.64614e-05)
(0.00464945 1.93142e-05 6.02797e-05)
(0.00455453 1.77535e-05 5.47301e-05)
(0.00446832 1.63792e-05 4.97258e-05)
(0.00438993 1.51543e-05 4.51903e-05)
(0.0043186 1.40449e-05 4.10675e-05)
(0.00425368 1.30188e-05 3.73056e-05)
(0.0041946 1.20445e-05 3.38472e-05)
(0.00414086 1.11018e-05 3.06528e-05)
(0.00409204 1.01893e-05 2.7714e-05)
(0.00404772 9.31889e-06 2.50331e-05)
(0.00400754 8.51304e-06 2.26052e-05)
(0.00397112 7.79899e-06 2.04216e-05)
(0.00393813 7.1939e-06 1.84685e-05)
(0.00390826 6.69307e-06 1.67192e-05)
(0.00388121 6.27101e-06 1.51291e-05)
(0.00385675 5.89061e-06 1.36472e-05)
(0.00383468 5.51211e-06 1.2239e-05)
(0.00381483 5.0954e-06 1.08935e-05)
(0.00379708 4.60551e-06 9.61086e-06)
(0.00378134 4.02797e-06 8.40257e-06)
(0.00376751 3.37762e-06 7.29168e-06)
(0.00375551 2.68926e-06 6.29832e-06)
(0.00374521 2.0121e-06 5.43784e-06)
(0.00373647 1.3818e-06 4.71158e-06)
(0.00797305 8.7575e-05 0.000321567)
(0.00751485 7.6359e-05 0.000281029)
(0.00711427 6.69534e-05 0.000246741)
(0.00676246 5.9055e-05 0.000217599)
(0.00645213 5.23859e-05 0.000192696)
(0.00617733 4.67146e-05 0.000171298)
(0.00593309 4.18546e-05 0.000152817)
(0.00571528 3.76553e-05 0.000136782)
(0.00552043 3.39918e-05 0.000122816)
(0.00534564 3.07605e-05 0.000110595)
(0.00518848 2.78802e-05 9.98283e-05)
(0.00504688 2.52959e-05 9.0268e-05)
(0.00491908 2.29786e-05 8.17309e-05)
(0.00480355 2.09171e-05 7.40959e-05)
(0.00469896 1.91074e-05 6.72736e-05)
(0.00460412 1.75379e-05 6.11709e-05)
(0.00451799 1.61792e-05 5.56775e-05)
(0.0044397 1.49907e-05 5.06939e-05)
(0.00436847 1.39329e-05 4.61528e-05)
(0.00430366 1.29701e-05 4.19968e-05)
(0.00424468 1.20688e-05 3.81645e-05)
(0.00419103 1.1205e-05 3.46174e-05)
(0.00414225 1.03686e-05 3.1349e-05)
(0.00409795 9.56192e-06 2.83568e-05)
(0.00405773 8.80036e-06 2.56319e-05)
(0.00402126 8.10752e-06 2.3169e-05)
(0.00398821 7.50205e-06 2.09614e-05)
(0.0039583 6.98864e-06 1.89832e-05)
(0.00393125 6.55696e-06 1.71837e-05)
(0.00390681 6.18302e-06 1.55092e-05)
(0.00388478 5.83024e-06 1.393e-05)
(0.00386498 5.45099e-06 1.24311e-05)
(0.00384726 4.99668e-06 1.0994e-05)
(0.00383152 4.43767e-06 9.61417e-06)
(0.00381767 3.77625e-06 8.31213e-06)
(0.00380562 3.04317e-06 7.11897e-06)
(0.00379526 2.2904e-06 6.07078e-06)
(0.00378649 1.5659e-06 5.18277e-06)
(0.00797689 7.233e-05 0.000332546)
(0.00752015 6.29561e-05 0.000290613)
(0.00712071 5.50703e-05 0.000255201)
(0.00676976 4.84247e-05 0.00022514)
(0.0064601 4.27947e-05 0.000199471)
(0.00618583 3.79949e-05 0.000177421)
(0.00594202 3.38727e-05 0.000158375)
(0.00572458 3.03008e-05 0.000141852)
(0.00553007 2.71734e-05 0.000127457)
(0.00535561 2.44055e-05 0.000114836)
(0.00519877 2.19362e-05 0.000103676)
(0.00505751 1.97293e-05 9.37349e-05)
(0.00493007 1.77681e-05 8.4853e-05)
(0.00481491 1.60464e-05 7.69249e-05)
(0.00471067 1.45597e-05 6.98647e-05)
(0.00461616 1.32952e-05 6.35711e-05)
(0.00453034 1.2227e-05 5.79203e-05)
(0.00445234 1.13203e-05 5.28036e-05)
(0.00438138 1.05397e-05 4.81487e-05)
(0.0043168 9.85255e-06 4.38887e-05)
(0.00425804 9.22882e-06 3.9955e-05)
(0.00420457 8.64536e-06 3.63134e-05)
(0.00415595 8.0869e-06 3.29599e-05)
(0.00411176 7.54566e-06 2.98794e-05)
(0.00407162 7.02445e-06 2.70455e-05)
(0.00403521 6.53705e-06 2.44484e-05)
(0.00400223 6.10111e-06 2.20923e-05)
(0.00397239 5.73011e-06 1.99684e-05)
(0.00394543 5.42699e-06 1.80427e-05)
(0.00392107 5.17897e-06 1.6279e-05)
(0.00389911 4.95554e-06 1.46571e-05)
(0.00387935 4.71063e-06 1.31469e-05)
(0.00386165 4.39314e-06 1.16995e-05)
(0.0038459 3.96647e-06 1.02861e-05)
(0.00383202 3.42178e-06 8.91692e-06)
(0.00381994 2.77994e-06 7.62734e-06)
(0.00380956 2.08467e-06 6.46642e-06)
(0.00380079 1.38821e-06 5.46087e-06)
(0.00797247 4.67099e-05 0.000336316)
(0.007517 4.05296e-05 0.000293885)
(0.00711857 3.52822e-05 0.000258084)
(0.00676842 3.08151e-05 0.000227698)
(0.00645941 2.69928e-05 0.000201752)
(0.00618568 2.37037e-05 0.000179472)
(0.00594231 2.08547e-05 0.000160244)
(0.00572525 1.83661e-05 0.00014357)
(0.00553107 1.61729e-05 0.000129027)
(0.00535692 1.42262e-05 0.000116238)
(0.00520039 1.24948e-05 0.000104895)
(0.00505944 1.09635e-05 9.47805e-05)
(0.00493231 9.62709e-06 8.57558e-05)
(0.00481746 8.48284e-06 7.77182e-05)
(0.00471351 7.52511e-06 7.05741e-05)
(0.00461928 6.74251e-06 6.42169e-05)
(0.00453372 6.11626e-06 5.85255e-05)
(0.00445595 5.62222e-06 5.33972e-05)
(0.00438519 5.23561e-06 4.8753e-05)
(0.0043208 4.93259e-06 4.45062e-05)
(0.00426219 4.68967e-06 4.05792e-05)
(0.00420885 4.48583e-06 3.69489e-05)
(0.00416033 4.30368e-06 3.36162e-05)
(0.00411622 4.12993e-06 3.05465e-05)
(0.00407613 3.95873e-06 2.76866e-05)
(0.00403977 3.79425e-06 2.50167e-05)
(0.00400684 3.64804e-06 2.25542e-05)
(0.00397707 3.53325e-06 2.03191e-05)
(0.00395017 3.45684e-06 1.83104e-05)
(0.00392588 3.41239e-06 1.65175e-05)
(0.00390396 3.37741e-06 1.49203e-05)
(0.0038842 3.31374e-06 1.34632e-05)
(0.00386648 3.1769e-06 1.20676e-05)
(0.00385068 2.93264e-06 1.06844e-05)
(0.00383674 2.56812e-06 9.30997e-06)
(0.0038246 2.09547e-06 7.97289e-06)
(0.00381418 1.54688e-06 6.72448e-06)
(0.0038054 9.68732e-07 5.6032e-06)
(0.00751416 1.45788e-05 0.000294729)
(0.00711623 1.2479e-05 0.000258814)
(0.00676649 1.06105e-05 0.000228302)
(0.00645782 8.94182e-06 0.000202227)
(0.00618438 7.446e-06 0.000179841)
(0.00594127 6.10156e-06 0.00016054)
(0.00572443 4.89159e-06 0.000143806)
(0.00553045 3.80435e-06 0.000129189)
(0.0053565 2.83406e-06 0.000116306)
(0.00520017 1.98122e-06 0.000104868)
(0.00505943 1.25064e-06 9.46811e-05)
(0.0049325 6.46508e-07 8.56137e-05)
(0.00481785 1.67646e-07 7.75553e-05)
(0.00471409 -1.92516e-07 7.04009e-05)
(0.00462004 -4.42982e-07 6.4039e-05)
(0.00453464 -5.93593e-07 5.83563e-05)
(0.00445702 -6.54365e-07 5.32592e-05)
(0.00438639 -6.34928e-07 4.86627e-05)
(0.00432211 -5.46838e-07 4.44646e-05)
(0.00426359 -4.05837e-07 4.05847e-05)
(0.00421033 -2.28725e-07 3.70083e-05)
(0.00416186 -2.96948e-08 3.37334e-05)
(0.00411777 1.79736e-07 3.07072e-05)
(0.00407771 3.90794e-07 2.78589e-05)
(0.00404136 5.9877e-07 2.5163e-05)
(0.00400845 8.02683e-07 2.26457e-05)
(0.00397871 1.00344e-06 2.03513e-05)
(0.00395184 1.20029e-06 1.83121e-05)
(0.00392757 1.38656e-06 1.65382e-05)
(0.00390564 1.54654e-06 1.50007e-05)
(0.00388586 1.65573e-06 1.36183e-05)
(0.00386807 1.68605e-06 1.2292e-05)
(0.00385218 1.61713e-06 1.09593e-05)
(0.00383815 1.44186e-06 9.60223e-06)
(0.00382592 1.16727e-06 8.23737e-06)
(0.00381545 8.1314e-07 6.91451e-06)
(0.00380665 4.10631e-07 5.68393e-06)
(0.00751375 -1.27545e-05 0.000295025)
(0.00711574 -1.15309e-05 0.000259065)
(0.00676594 -1.0629e-05 0.000228456)
(0.00645725 -9.9813e-06 0.000202259)
(0.0061838 -9.53491e-06 0.000179758)
(0.0059407 -9.24219e-06 0.000160364)
(0.00572389 -9.05575e-06 0.000143548)
(0.00552997 -8.93087e-06 0.000128846)
(0.00535608 -8.82886e-06 0.00011588)
(0.00519983 -8.71837e-06 0.000104378)
(0.00505918 -8.57763e-06 9.41544e-05)
(0.00493235 -8.3968e-06 8.50782e-05)
(0.00481779 -8.17606e-06 7.70351e-05)
(0.00471412 -7.91975e-06 6.99086e-05)
(0.00462013 -7.62977e-06 6.3575e-05)
(0.00453481 -7.30319e-06 5.79168e-05)
(0.00445724 -6.93424e-06 5.28439e-05)
(0.00438668 -6.51766e-06 4.82756e-05)
(0.00432245 -6.05297e-06 4.41151e-05)
(0.00426398 -5.5467e-06 4.02865e-05)
(0.00421074 -5.00818e-06 3.67679e-05)
(0.00416228 -4.44439e-06 3.35418e-05)
(0.00411819 -3.86156e-06 3.05495e-05)
(0.00407813 -3.26875e-06 2.77263e-05)
(0.00404177 -2.67925e-06 2.50503e-05)
(0.00400885 -2.11061e-06 2.25455e-05)
(0.00397908 -1.58175e-06 2.02623e-05)
(0.00395219 -1.10875e-06 1.82501e-05)
(0.00392788 -7.02957e-07 1.65277e-05)
(0.0039059 -3.72417e-07 1.50588e-05)
(0.00388604 -1.2303e-07 1.37472e-05)
(0.00386815 4.20826e-08 1.24841e-05)
(0.00385216 1.25803e-07 1.11969e-05)
(0.00383801 1.33754e-07 9.85535e-06)
(0.00382569 7.12748e-08 8.46927e-06)
(0.00381513 -5.44733e-08 7.08889e-06)
(0.00380628 -2.30581e-07 5.77088e-06)
(0.00751578 -3.90464e-05 0.000294664)
(0.00711713 -3.45995e-05 0.000258735)
(0.00676681 -3.09795e-05 0.000228088)
(0.00645771 -2.80329e-05 0.000201809)
(0.00618396 -2.56414e-05 0.000179211)
(0.00594063 -2.37015e-05 0.000159723)
(0.00572366 -2.21092e-05 0.000142824)
(0.00552962 -2.07658e-05 0.00012805)
(0.00535565 -1.9588e-05 0.000115033)
(0.00519936 -1.85154e-05 0.0001035)
(0.00505868 -1.75144e-05 9.32673e-05)
(0.00493184 -1.6574e-05 8.42089e-05)
(0.00481726 -1.56923e-05 7.62118e-05)
(0.00471357 -1.48657e-05 6.91478e-05)
(0.00461956 -1.40813e-05 6.28717e-05)
(0.00453421 -1.33182e-05 5.72487e-05)
(0.00445664 -1.25557e-05 5.21865e-05)
(0.00438607 -1.17789e-05 4.76224e-05)
(0.00432184 -1.09788e-05 4.34853e-05)
(0.00426335 -1.01516e-05 3.97047e-05)
(0.00421009 -9.29641e-06 3.62378e-05)
(0.00416161 -8.41104e-06 3.30476e-05)
(0.0041175 -7.49645e-06 3.00829e-05)
(0.00407741 -6.56267e-06 2.73034e-05)
(0.00404101 -5.6321e-06 2.46967e-05)
(0.00400804 -4.73944e-06 2.22763e-05)
(0.00397821 -3.92464e-06 2.00793e-05)
(0.00395124 -3.22052e-06 1.815e-05)
(0.00392683 -2.64421e-06 1.65054e-05)
(0.00390474 -2.1951e-06 1.51069e-05)
(0.00388475 -1.85775e-06 1.38583e-05)
(0.00386673 -1.60459e-06 1.2647e-05)
(0.0038506 -1.4037e-06 1.13907e-05)
(0.00383632 -1.23298e-06 1.00539e-05)
(0.00382387 -1.0874e-06 8.65048e-06)
(0.00381321 -9.71642e-07 7.23323e-06)
(0.00380429 -8.90197e-07 5.85266e-06)
(0.00379701 -8.40622e-07 4.54483e-06)
(0.00751812 -6.20396e-05 0.000291632)
(0.00711833 -5.48057e-05 0.000256029)
(0.0067671 -4.87919e-05 0.00022561)
(0.00645728 -4.37804e-05 0.000199482)
(0.00618296 -3.96135e-05 0.000176983)
(0.0059392 -3.61543e-05 0.000157566)
(0.00572189 -3.32585e-05 0.000140729)
(0.00552759 -3.07819e-05 0.00012602)
(0.00535343 -2.86026e-05 0.000113073)
(0.00519698 -2.66376e-05 0.000101618)
(0.00505617 -2.48493e-05 9.14718e-05)
(0.00492921 -2.32291e-05 8.25125e-05)
(0.00481452 -2.17715e-05 7.46276e-05)
(0.00471071 -2.04592e-05 6.768e-05)
(0.00461659 -1.92576e-05 6.15083e-05)
(0.00453115 -1.8123e-05 5.59606e-05)
(0.00445349 -1.7021e-05 5.09405e-05)
(0.00438285 -1.59327e-05 4.64044e-05)
(0.00431855 -1.4846e-05 4.23092e-05)
(0.00425999 -1.37507e-05 3.85926e-05)
(0.00420666 -1.26368e-05 3.51952e-05)
(0.00415812 -1.14936e-05 3.20665e-05)
(0.00411395 -1.03169e-05 2.91653e-05)
(0.0040738 -9.11866e-06 2.6473e-05)
(0.00403735 -7.93094e-06 2.39869e-05)
(0.0040043 -6.80372e-06 2.17118e-05)
(0.00397437 -5.79311e-06 1.96653e-05)
(0.00394727 -4.94274e-06 1.78713e-05)
(0.00392272 -4.27165e-06 1.63332e-05)