/*--------------------------------*- C++ -*----------------------------------*\
| =========                 |                                                 |
| \\      /  F ield         | OpenFOAM: The Open Source CFD Toolbox           |
|  \\    /   O peration     | Version:  2.3.1                                 |
|   \\  /    A nd           | Web:      www.OpenFOAM.org                      |
|    \\/     M anipulation  |                                                 |
\*---------------------------------------------------------------------------*/
FoamFile
{
    version     2.0;
    format      ascii;
    class       volScalarField;
    location    "10";
    object      epsilon_0;
}
// * * * * * * * * * * * * * * * * * * * * * * * * * * * * * * * * * * * * * //

dimensions      [0 2 -3 0 0 0 0];

internalField   nonuniform List<scalar> 
37632
(
177.933
16.6474
2.76331
1.16044
0.427761
0.38736
0.314758
0.0705549
0.0122126
0.00875675
0.00731986
0.00694281
0.00612286
0.00603315
0.00561869
0.00628611
0.00707318
0.0079212
0.00897781
0.00989772
0.0103777
0.0103468
0.00958175
0.00845501
0.00819595
0.00776781
0.00664699
0.0055058
0.00462386
0.00425854
0.00418996
0.00395987
0.00351461
0.00343101
0.0032077
0.00276893
0.0027317
0.00258833
40.4107
6.76761
1.96713
0.331075
0.0781306
0.0354284
0.0289503
0.0151282
0.0101776
0.0110203
0.00748035
0.00650737
0.00455007
0.00396159
0.00343814
0.00480263
0.00604559
0.0067348
0.00771118
0.00791168
0.00823627
0.00836776
0.00799016
0.00715329
0.00621313
0.0055517
0.00483425
0.00452747
0.00443365
0.00441489
0.00442234
0.00448535
0.00415032
0.00328843
0.00311781
0.00326664
0.00326922
0.0030863
37.1206
6.47049
0.626138
0.301556
0.0498
0.0179578
0.0112898
0.0086649
0.0070204
0.00682609
0.00494163
0.00463754
0.0031506
0.00302348
0.0012111
0.000450424
0.000320705
0.000296263
0.000354791
0.000358852
0.000412758
0.000460838
0.000431833
0.000446745
0.000474905
0.00057327
0.000540716
0.000628453
0.000777963
0.000915261
0.00118304
0.00147673
0.00174977
0.0019834
0.00221594
0.00232855
0.0022766
35.6225
7.03922
1.31827
0.165718
0.0771805
0.0625367
0.0227907
0.00459363
0.00352947
0.00232955
0.00184367
0.00108752
0.000813821
0.000531541
0.000350586
0.000201841
0.000168077
0.000119751
0.000109569
9.3243e-05
8.65809e-05
8.28922e-05
8.15016e-05
8.22732e-05
9.6527e-05
0.000113446
0.000115113
0.000153432
0.000203267
0.000234011
0.00033168
0.000405763
0.000517098
0.000613562
0.000676187
0.000642383
0.000490673
35.1838
9.34678
2.11201
0.127961
0.0437993
0.0562551
0.0195146
0.0076379
0.00662194
0.0027669
0.00336615
0.000857124
0.000961584
0.00034814
0.000396006
0.000145035
0.000129284
0.000118646
8.84194e-05
8.05899e-05
7.17653e-05
5.93924e-05
5.53317e-05
5.1467e-05
4.96805e-05
4.93099e-05
5.0209e-05
5.5333e-05
6.68563e-05
7.4037e-05
9.39935e-05
0.000103228
0.000120249
0.000122466
0.00011421
9.23184e-05
6.31983e-05
3.90854e-05
36.1383
11.89
2.16646
0.0993319
0.0361686
0.0285737
0.00499127
0.00608823
0.00414328
0.00188342
0.00164874
0.000635749
0.000834576
0.000227215
0.000253741
0.000138542
0.000121287
0.000102885
9.48583e-05
7.67535e-05
7.23974e-05
5.68955e-05
5.21827e-05
4.60644e-05
4.0026e-05
3.60801e-05
3.28582e-05
2.96657e-05
2.79558e-05
2.57487e-05
2.48767e-05
2.39041e-05
2.43947e-05
2.15507e-05
2.12072e-05
1.81233e-05
1.61894e-05
1.50043e-05
35.4822
10.4236
1.61276
0.179194
0.0487577
0.0112997
0.0049272
0.00251212
0.00214957
0.00101217
0.000748055
0.000324014
0.00031518
0.000176094
0.000169302
0.000140267
0.000110704
9.85199e-05
8.13003e-05
7.02043e-05
6.83047e-05
5.59408e-05
4.95841e-05
4.53925e-05
3.91868e-05
3.66401e-05
3.08478e-05
2.86669e-05
2.4285e-05
2.22758e-05
1.90036e-05
1.73465e-05
1.4792e-05
1.36659e-05
1.18426e-05
1.10666e-05
1.00812e-05
34.5152
9.35108
1.64964
0.296324
0.0624076
0.0142335
0.0157843
0.00486513
0.00581199
0.00467498
0.00220581
0.000292983
0.000170689
0.000166134
0.00017082
0.000131596
0.000116406
0.000112232
8.09665e-05
6.74042e-05
6.26364e-05
4.99528e-05
4.48299e-05
3.78467e-05
3.89265e-05
3.32719e-05
3.11866e-05
2.73389e-05
2.5885e-05
2.14745e-05
2.01964e-05
1.65591e-05
1.53264e-05
1.27894e-05
1.18015e-05
1.01441e-05
9.19108e-06
28.4435
5.251
1.23034
0.341825
0.0695739
0.0129009
0.00744528
0.00433239
0.00368261
0.0017918
0.0007201
0.000303613
0.000288153
0.000296021
0.000326309
0.000263464
0.00019094
0.000150002
0.000130521
8.40681e-05
6.14831e-05
5.1783e-05
4.04322e-05
3.36626e-05
3.22583e-05
2.88128e-05
2.53689e-05
2.42182e-05
2.22182e-05
1.91018e-05
1.79518e-05
1.50408e-05
1.33844e-05
1.20825e-05
1.03654e-05
9.49649e-06
8.34265e-06
26.1106
7.28816
2.17084
0.803601
0.243198
0.117514
0.0628122
0.0337918
0.0156178
0.00740986
0.00309375
0.000754697
0.000502324
0.000655891
0.000655797
0.000607614
0.000478454
0.000297544
0.00024353
0.000201742
0.000112576
8.03406e-05
4.66213e-05
3.18059e-05
2.64662e-05
2.46434e-05
2.19329e-05
2.2101e-05
1.94096e-05
1.70698e-05
1.59671e-05
1.31733e-05
1.21605e-05
1.0711e-05
9.36358e-06
8.66015e-06
7.63254e-06
22.8731
6.83216
1.90585
0.739533
0.303173
0.10514
0.0426774
0.020054
0.0100658
0.00496961
0.0028294
0.00236128
0.0033167
0.0024119
0.00143269
0.000829084
0.000715495
0.000397404
0.00029753
0.000301404
0.000187434
0.000110709
9.83967e-05
3.35969e-05
1.81614e-05
1.47615e-05
1.57973e-05
1.57851e-05
1.46776e-05
1.2855e-05
1.25965e-05
1.0229e-05
9.91571e-06
8.3086e-06
7.90643e-06
6.83094e-06
6.37426e-06
16.1868
7.40043
2.69646
1.20096
0.660884
0.346822
0.155525
0.0712833
0.0357118
0.0198742
0.0102382
0.0103301
0.0122669
0.0119467
0.00560371
0.000869165
0.000199362
0.000213702
0.000298006
0.000243435
0.000211994
8.95313e-05
6.61256e-05
5.88671e-05
2.06431e-05
9.74841e-06
8.98564e-06
8.53081e-06
7.8013e-06
7.10859e-06
6.70669e-06
5.76687e-06
5.48544e-06
4.75926e-06
4.50932e-06
3.99873e-06
3.7875e-06
33.9297
8.58926
1.24613
0.402167
0.235607
0.14523
0.0688136
0.015021
0.00825215
0.00784946
0.00654088
0.00655186
0.00622608
0.00606073
0.00561509
0.00677857
0.00847013
0.010033
0.0121419
0.0138259
0.0140761
0.0130874
0.01067
0.0103478
0.010073
0.00867388
0.00668498
0.00546781
0.00480021
0.00481849
0.00471416
0.00402332
0.00368138
0.00344213
0.0028066
0.00253432
0.00214358
0.00155539
28.7153
7.36243
1.57968
0.40725
0.0852122
0.0471335
0.0234705
0.0155452
0.0117219
0.0127413
0.00954095
0.00878551
0.00733224
0.00672709
0.00612992
0.00801481
0.010322
0.0113721
0.0132693
0.0143829
0.0148528
0.0143572
0.0135412
0.0126822
0.0113077
0.00973406
0.00839966
0.00739725
0.00670366
0.00633114
0.00591225
0.00533277
0.00462893
0.0037203
0.00305467
0.00251283
0.0021108
0.00237699
39.4091
3.25528
0.974666
0.524674
0.053665
0.0170908
0.00793062
0.00684877
0.00451542
0.00578995
0.00311957
0.00338829
0.00235942
0.00235317
0.00149591
0.00108483
0.000848924
0.00101676
0.00105968
0.00122968
0.00125354
0.0012739
0.00126435
0.00120655
0.00113748
0.00111819
0.00106757
0.00106018
0.00113009
0.00119992
0.0013275
0.00145775
0.00158905
0.001704
0.00175749
0.0017688
0.00181007
44.003
1.86526
0.253495
0.117696
0.0706972
0.0382759
0.0110428
0.0033053
0.00314044
0.0020794
0.00234539
0.000868762
0.0010634
0.000370457
0.000271892
0.000143199
0.000116803
8.90828e-05
7.79767e-05
7.03638e-05
6.62556e-05
6.60253e-05
6.6415e-05
7.00087e-05
7.72691e-05
9.96827e-05
0.000115256
0.000141342
0.000190638
0.00024003
0.000308452
0.000376684
0.000439147
0.000475087
0.000483485
0.000454851
0.00036563
54.7453
4.26697
0.690878
0.0482862
0.0238815
0.0296685
0.0111752
0.00612388
0.00736475
0.00244604
0.00311918
0.000781373
0.000657921
0.000287126
0.000297802
7.53401e-05
5.33639e-05
4.01425e-05
3.02162e-05
2.72865e-05
2.06997e-05
1.84296e-05
1.67537e-05
1.60951e-05
1.58384e-05
1.74235e-05
1.86463e-05
2.24037e-05
2.86582e-05
3.4417e-05
4.50574e-05
5.43635e-05
6.42772e-05
7.10745e-05
7.41422e-05
6.92815e-05
5.60228e-05
4.29672e-05
55.8769
6.64182
0.757312
0.0487148
0.016762
0.0195812
0.00356889
0.00273817
0.00266735
0.00115138
0.000589244
0.000428588
0.000477627
0.0001363
0.000140067
5.24563e-05
4.43666e-05
3.11316e-05
2.70484e-05
2.38856e-05
1.84112e-05
1.55523e-05
1.39102e-05
1.23952e-05
1.0876e-05
9.91888e-06
9.15064e-06
8.9804e-06
8.53115e-06
8.42004e-06
8.92995e-06
9.27014e-06
1.04177e-05
1.09843e-05
1.21461e-05
1.28069e-05
1.30421e-05
1.38658e-05
46.3899
5.31892
0.713431
0.183506
0.0350947
0.00996256
0.00560776
0.00231612
0.0017766
0.000674379
0.000783963
0.000152682
0.000170059
9.11287e-05
9.88883e-05
6.30785e-05
4.87048e-05
3.75779e-05
2.75866e-05
2.38915e-05
1.85419e-05
1.46084e-05
1.30897e-05
1.25799e-05
1.00069e-05
8.65013e-06
8.16186e-06
7.2163e-06
6.25644e-06
5.89951e-06
5.25361e-06
4.79318e-06
4.51591e-06
4.15547e-06
4.01819e-06
3.86395e-06
3.83209e-06
42.0691
6.72063
1.09015
0.236393
0.0349648
0.0178258
0.0113298
0.00551317
0.00635908
0.0050525
0.00265358
0.000233145
0.000134171
9.60408e-05
8.67039e-05
8.12808e-05
7.40208e-05
6.54726e-05
5.27533e-05
3.49139e-05
2.75735e-05
1.78207e-05
1.39627e-05
1.26531e-05
9.07364e-06
8.25451e-06
7.55432e-06
7.3272e-06
6.13557e-06
5.80975e-06
4.85262e-06
4.49017e-06
3.83445e-06
3.50811e-06
3.14201e-06
2.9039e-06
2.64414e-06
36.0334
4.90245
0.958061
0.312109
0.0844855
0.0166453
0.00536265
0.00313668
0.00261927
0.00142611
0.000647527
0.000227682
0.000192554
0.000228243
0.000240214
0.000228354
0.00018914
0.000171171
0.000164573
9.72212e-05
6.90817e-05
3.53827e-05
2.06878e-05
1.51452e-05
8.25264e-06
6.8925e-06
6.22521e-06
5.90363e-06
5.01338e-06
4.76704e-06
4.05464e-06
3.73701e-06
3.30221e-06
2.99564e-06
2.67302e-06
2.48726e-06
2.24149e-06
33.5604
8.21211
1.94904
0.69254
0.250744
0.11938
0.0537995
0.017104
0.0103355
0.00442878
0.00299791
0.00128139
0.000734571
0.000821583
0.000664089
0.000529586
0.000476756
0.000389202
0.000369104
0.000364884
0.000266158
0.000147112
6.61284e-05
2.72528e-05
1.24399e-05
7.00227e-06
5.76994e-06
5.37045e-06
4.48519e-06
4.16158e-06
3.76196e-06
3.26356e-06
2.86035e-06
2.6299e-06
2.32178e-06
2.19331e-06
1.96597e-06
31.0001
7.98758
1.60359
0.63065
0.310067
0.110007
0.0649619
0.0269389
0.0133773
0.00830147
0.00730126
0.00880985
0.00904554
0.00472604
0.0021491
0.00096163
0.000650226
0.000493726
0.000407706
0.000581743
0.000534542
0.000358508
0.000196465
9.87805e-05
3.42004e-05
7.84769e-06
5.14453e-06
4.2405e-06
3.55459e-06
3.46093e-06
3.0075e-06
2.87405e-06
2.3737e-06
2.20578e-06
1.96275e-06
1.86335e-06
1.70378e-06
12.5133
5.21459
1.77272
0.815694
0.437498
0.222305
0.105337
0.0529354
0.0283145
0.0173507
0.0106478
0.0102699
0.0100188
0.00894511
0.00456433
0.00100696
0.000269689
0.000261792
0.000259045
0.000237381
0.000193229
7.83284e-05
9.89697e-05
0.000134955
7.75998e-05
1.04841e-05
4.94604e-06
4.82687e-06
4.62074e-06
4.19088e-06
3.99215e-06
3.6605e-06
3.30856e-06
3.1442e-06
2.82291e-06
2.67588e-06
2.4812e-06
24.2443
6.97687
1.84525
0.519157
0.0999878
0.0313609
0.0205027
0.0125694
0.0117733
0.0116294
0.0105105
0.0109808
0.0109239
0.0111998
0.0109286
0.0118941
0.0134898
0.0154297
0.0177869
0.0191325
0.0191549
0.0179707
0.0154428
0.0146622
0.0135362
0.0108612
0.00857827
0.00729554
0.00667208
0.0064985
0.00611777
0.0053662
0.00479152
0.00405359
0.00343943
0.00302169
0.00196004
0.00101878
5.29901
2.56674
0.452809
0.179244
0.0516572
0.0302889
0.0223641
0.0143249
0.013328
0.0145511
0.0122628
0.012923
0.0116116
0.0119837
0.0112145
0.0118584
0.0132274
0.0146279
0.0162192
0.0173363
0.0179506
0.0172025
0.0165122
0.01552
0.0137499
0.0118314
0.0102806
0.00899702
0.00825634
0.00765288
0.0069119
0.00632628
0.00533404
0.00405767
0.00328354
0.00256892
0.00173886
0.00149704
6.56701
1.5529
0.313363
0.316703
0.0374966
0.0121908
0.00468698
0.00508707
0.00269417
0.0034595
0.00220805
0.0022724
0.00168687
0.00157518
0.00129914
0.00122604
0.00143381
0.00159058
0.00178053
0.00196676
0.00206819
0.00202027
0.002035
0.00187955
0.00170231
0.00156615
0.00143738
0.00134927
0.0013456
0.00133087
0.00134084
0.00135575
0.00132915
0.00129092
0.00124342
0.00111276
0.000933984
2.36225
0.478854
0.0801011
0.0430986
0.0218835
0.00658513
0.00371499
0.00137283
0.00123589
0.00080328
0.000850999
0.000407755
0.000300459
0.000234175
0.000143823
0.000122879
0.000121479
0.000119867
0.00011439
0.000116183
0.000109113
0.000104001
0.000103857
9.68301e-05
9.49444e-05
9.69801e-05
0.000103572
0.00010959
0.00012667
0.000144279
0.000163193
0.000188317
0.000203501
0.000212139
0.000208356
0.000186183
0.000139395
4.39969
0.901269
0.166997
0.0185008
0.00713626
0.00774404
0.00564901
0.0014535
0.00153772
0.000806257
0.000611864
0.000406166
0.00016919
0.00016133
6.89999e-05
5.02927e-05
3.41612e-05
2.98037e-05
2.43449e-05
2.28205e-05
1.88837e-05
1.6284e-05
1.55064e-05
1.46838e-05
1.43798e-05
1.46994e-05
1.48556e-05
1.61139e-05
1.76112e-05
1.98483e-05
2.22264e-05
2.60086e-05
2.8647e-05
3.16211e-05
3.25541e-05
3.2284e-05
2.90534e-05
2.59663e-05
4.79558
0.952802
0.210438
0.0205148
0.0093627
0.0113115
0.00254415
0.00103319
0.000641516
0.000568189
0.000218741
0.000197663
0.00011234
7.50224e-05
5.44396e-05
4.44449e-05
3.13706e-05
2.47425e-05
2.02535e-05
1.79822e-05
1.34845e-05
1.13626e-05
1.04609e-05
9.34071e-06
8.41635e-06
7.96353e-06
7.53796e-06
7.47223e-06
7.20354e-06
7.13118e-06
7.18697e-06
7.15623e-06
7.26113e-06
7.26508e-06
7.47937e-06
7.58967e-06
7.6552e-06
7.75476e-06
4.59962
1.07972
0.318273
0.0964288
0.0228067
0.015789
0.00223572
0.000676218
0.000415727
0.000269229
0.000258812
0.00012094
0.000120017
6.81483e-05
7.00724e-05
4.66711e-05
4.52885e-05
3.35019e-05
2.59712e-05
2.12994e-05
1.60226e-05
1.12561e-05
9.49651e-06
8.7536e-06
6.97415e-06
6.13269e-06
5.80073e-06
5.44072e-06
4.87414e-06
4.68418e-06
4.37062e-06
4.0591e-06
3.86875e-06
3.55289e-06
3.38437e-06
3.18416e-06
3.047e-06
5.36668
1.65517
0.402555
0.0808366
0.016933
0.00870075
0.00250964
0.00118293
0.000967165
0.000758423
0.000836382
0.000180992
0.000149944
9.95921e-05
9.84783e-05
9.35212e-05
9.01816e-05
7.52438e-05
6.47048e-05
4.37658e-05
3.40266e-05
1.81009e-05
1.14494e-05
8.86237e-06
6.40524e-06
5.51086e-06
5.15554e-06
4.87917e-06
4.26308e-06
4.08234e-06
3.58283e-06
3.35668e-06
3.0132e-06
2.70802e-06
2.49347e-06
2.28378e-06
2.10995e-06
7.20664
1.8043
0.421866
0.16401
0.0567105
0.0113103
0.00293164
0.00100647
0.000603318
0.000416137
0.000334806
0.000229204
0.000233741
0.000263954
0.000274252
0.000245685
0.000229824
0.000209222
0.000204842
0.000140678
0.000109432
6.77708e-05
3.03058e-05
1.58302e-05
7.01223e-06
4.95211e-06
4.39917e-06
4.04005e-06
3.56038e-06
3.39586e-06
3.04578e-06
2.83191e-06
2.53042e-06
2.24109e-06
2.0312e-06
1.87119e-06
1.70121e-06
10.384
3.31321
0.803602
0.335473
0.150914
0.0742785
0.0256957
0.00722617
0.00306366
0.00158958
0.00122809
0.001232
0.00115843
0.0010856
0.00084512
0.000600633
0.000514052
0.000443578
0.000399362
0.000371462
0.000312895
0.000270554
0.000149751
7.68462e-05
1.98639e-05
5.86674e-06
4.27072e-06
3.84266e-06
3.34168e-06
3.14473e-06
2.85139e-06
2.5901e-06
2.21608e-06
1.98533e-06
1.75805e-06
1.64379e-06
1.48157e-06
9.55935
3.41961
0.872906
0.388122
0.24948
0.11635
0.104192
0.047693
0.0289301
0.0222179
0.0192102
0.0206246
0.0146033
0.0082804
0.00356562
0.0013801
0.000703956
0.000566969
0.000434976
0.000436768
0.000410726
0.000444503
0.000354955
0.000261167
0.000129019
1.67407e-05
4.39963e-06
3.31357e-06
2.94141e-06
2.84799e-06
2.60402e-06
2.50199e-06
2.07509e-06
1.86641e-06
1.67813e-06
1.56945e-06
1.43254e-06
10.7498
5.06453
1.98211
0.942234
0.478531
0.240388
0.129642
0.0771332
0.0498616
0.0342369
0.0243982
0.0229049
0.0194354
0.0149739
0.00686188
0.00180078
0.000494936
0.000356046
0.000307469
0.000273882
0.00025547
0.00018602
0.000205676
0.000203721
0.000186323
4.46043e-05
5.80264e-06
5.60854e-06
5.31585e-06
4.9308e-06
4.56006e-06
4.25646e-06
3.82883e-06
3.63595e-06
3.29214e-06
3.11104e-06
2.89906e-06
11.0461
6.54857
1.79451
0.676637
0.06479
0.0154856
0.0145124
0.0136015
0.0135346
0.013932
0.0134565
0.0142225
0.0146737
0.015471
0.0155679
0.0163349
0.0175127
0.0194951
0.0217607
0.0228183
0.0226847
0.0212005
0.0186749
0.0175584
0.0155893
0.0122008
0.00974964
0.00853258
0.00786639
0.00738367
0.00689485
0.00618036
0.00523798
0.00431529
0.00376979
0.00306897
0.00153468
0.0007975
2.14981
1.28562
0.232299
0.13427
0.0461193
0.0313662
0.0149269
0.01269
0.0125551
0.0140884
0.0134233
0.0145593
0.0144429
0.0151929
0.0149954
0.0147429
0.0154666
0.0170422
0.0184929
0.0197103
0.0201681
0.0193289
0.0186498
0.0175541
0.0154659
0.0133549
0.0115784
0.0101632
0.00939031
0.00848251
0.00761471
0.00701667
0.0056029
0.00410432
0.00317377
0.00219883
0.00128481
0.000995276
1.57395
0.543148
0.120832
0.0432273
0.0113641
0.00886063
0.00285405
0.00283558
0.00198378
0.00246039
0.00203347
0.0022499
0.00213242
0.00211392
0.00199422
0.00181225
0.00199532
0.00222623
0.00243984
0.00268631
0.0028096
0.0027646
0.00273483
0.00255106
0.00226826
0.00202627
0.0018032
0.00161888
0.00153792
0.00142329
0.00133868
0.0012346
0.00106092
0.000923766
0.000821659
0.000655108
0.000486286
0.289266
0.133064
0.034613
0.0131849
0.00707961
0.00243772
0.00163805
0.000664541
0.000567249
0.000438705
0.000416882
0.000303378
0.000242341
0.000209469
0.000187583
0.000166812
0.000165417
0.000168583
0.00016997
0.000174541
0.000171094
0.000161348
0.000157927
0.000144685
0.000131758
0.00012409
0.000118031
0.0001149
0.000117313
0.000118208
0.000119732
0.000120366
0.000117444
0.000115153
0.000108066
9.40748e-05
7.14606e-05
0.262378
0.138097
0.0597805
0.00972531
0.00373463
0.00447848
0.00321652
0.00059076
0.000562795
0.000360974
0.000274922
0.000218604
0.0001057
0.000105368
5.56212e-05
4.79829e-05
3.68123e-05
3.20213e-05
2.76102e-05
2.63677e-05
2.15118e-05
1.89699e-05
1.79063e-05
1.69273e-05
1.61075e-05
1.57928e-05
1.55965e-05
1.59727e-05
1.62241e-05
1.67626e-05
1.72471e-05
1.77095e-05
1.78856e-05
1.81464e-05
1.75432e-05
1.68861e-05
1.5279e-05
1.39502e-05
0.294023
0.123784
0.0498783
0.00985214
0.00490824
0.0055677
0.00125945
0.000579971
0.000327033
0.000331483
0.000158964
0.000150277
8.20713e-05
7.37732e-05
4.80715e-05
4.193e-05
3.15395e-05
2.51686e-05
2.08418e-05
1.86226e-05
1.39909e-05
1.16092e-05
1.0616e-05
9.53779e-06
8.63632e-06
8.18828e-06
7.84959e-06
7.778e-06
7.43176e-06
7.2906e-06
7.18732e-06
6.92268e-06
6.77922e-06
6.43416e-06
6.30638e-06
5.96457e-06
5.72835e-06
5.47335e-06
0.361487
0.174595
0.108138
0.0325026
0.0129615
0.0070862
0.000919397
0.000378329
0.000224987
0.000170792
0.000153334
9.15085e-05
8.30128e-05
6.26709e-05
5.99827e-05
4.92942e-05
4.7516e-05
3.43376e-05
2.81038e-05
2.31621e-05
1.66297e-05
1.15082e-05
9.50708e-06
8.52515e-06
6.94853e-06
6.07514e-06
5.72765e-06
5.399e-06
4.91043e-06
4.72378e-06
4.45897e-06
4.17125e-06
3.95687e-06
3.612e-06
3.38587e-06
3.13142e-06
2.93257e-06
0.706527
0.264036
0.111938
0.0276528
0.0110753
0.00387021
0.000988485
0.000460292
0.000355781
0.000284315
0.000291347
0.000145223
0.000121597
0.00010707
0.000101476
9.92817e-05
9.65961e-05
7.84796e-05
6.72892e-05
4.91056e-05
3.61733e-05
1.89838e-05
1.15189e-05
8.61977e-06
6.49905e-06
5.43956e-06
5.03369e-06
4.63473e-06
4.10798e-06
3.92288e-06
3.51509e-06
3.28573e-06
2.9929e-06
2.66197e-06
2.45975e-06
2.23973e-06
2.06796e-06
1.15103
0.343538
0.159193
0.0832951
0.0229271
0.00708407
0.00229281
0.000749706
0.000458426
0.000336646
0.000296321
0.000262974
0.000280323
0.000295362
0.00030334
0.000257474
0.000242954
0.000214267
0.000204166
0.000148893
0.000117302
7.09752e-05
2.90833e-05
1.32159e-05
7.19016e-06
5.16964e-06
4.55961e-06
4.02945e-06
3.54919e-06
3.33781e-06
3.02513e-06
2.7995e-06
2.50892e-06
2.17092e-06
1.97923e-06
1.80779e-06
1.64417e-06
3.4604
1.0547
0.32151
0.167111
0.0898922
0.0540462
0.0184644
0.00786492
0.00425817
0.00261767
0.00196814
0.00184524
0.00184276
0.00150023
0.00116623
0.000717914
0.000534779
0.00046462
0.000418403
0.000363366
0.000310426
0.0002716
0.00014874
5.04027e-05
1.59466e-05
6.18031e-06
4.88302e-06
4.22869e-06
3.64066e-06
3.30873e-06
2.92157e-06
2.63524e-06
2.24563e-06
1.9173e-06
1.72118e-06
1.5828e-06
1.42801e-06
4.06176
1.56939
0.490483
0.244993
0.187363
0.148828
0.119909
0.0723223
0.0529068
0.0402989
0.0323961
0.0290585
0.0222837
0.0125816
0.00569015
0.00220708
0.000908609
0.000601489
0.000483827
0.000420594
0.000386564
0.000398829
0.000401681
0.00020195
8.03117e-05
1.06955e-05
4.84509e-06
3.75946e-06
3.40448e-06
3.24342e-06
2.92129e-06
2.78052e-06
2.20651e-06
1.89837e-06
1.75018e-06
1.58519e-06
1.4453e-06
8.53474
4.69749
1.98725
0.94577
0.47107
0.236487
0.144069
0.0998923
0.073126
0.0532646
0.0399411
0.0360694
0.0298277
0.0215678
0.0103079
0.00300367
0.000805895
0.000435532
0.000341164
0.000302348
0.000287951
0.000257232
0.000237632
0.000215003
0.000167748
1.53847e-05
6.55295e-06
6.68607e-06
6.33901e-06
5.76875e-06
4.94202e-06
4.58182e-06
4.09103e-06
3.87587e-06
3.5804e-06
3.35294e-06
3.14564e-06
8.58936
5.19131
1.85629
0.855039
0.161626
0.0151522
0.0130797
0.0133134
0.0137339
0.0148844
0.0151382
0.0162885
0.0172423
0.0185135
0.0189877
0.0198298
0.0207516
0.0226153
0.0247327
0.0255667
0.0252985
0.0235269
0.0209915
0.0195024
0.0168752
0.0131802
0.0105772
0.00944805
0.00860293
0.00785719
0.00743195
0.00660811
0.00540277
0.00446252
0.00390703
0.00289937
0.00124431
0.000697128
1.19967
0.699197
0.224894
0.125293
0.0524958
0.0177863
0.0100985
0.00981554
0.0108563
0.0125318
0.01311
0.0146625
0.015576
0.0167713
0.0170596
0.0168777
0.0173894
0.0188692
0.0203419
0.0216208
0.0219243
0.0209346
0.0201806
0.0189244
0.0166709
0.0144357
0.0124445
0.0110225
0.0101396
0.00895824
0.00815492
0.00746376
0.0056597
0.00408903
0.00300379
0.00186727
0.00105799
0.000847344
0.864643
0.375278
0.090579
0.0198715
0.00573463
0.00461295
0.00164668
0.00176442
0.00159433
0.00197606
0.0019068
0.00228062
0.00240967
0.00248909
0.00252052
0.00240696
0.00252141
0.00280498
0.00306073
0.00334128
0.00349009
0.00344372
0.00338902
0.00316344
0.00282066
0.00247908
0.00216722
0.0019062
0.00174079
0.00154634
0.00139368
0.00120168
0.000939279
0.000746755
0.000615062
0.000458661
0.000329157
0.112038
0.0666407
0.0275565
0.00593108
0.00234348
0.00127298
0.00106093
0.000415264
0.000365118
0.000327742
0.000323176
0.000288028
0.000263777
0.000251017
0.000231482
0.000220062
0.000215851
0.000226916
0.000232362
0.000240165
0.000240372
0.000230031
0.000221774
0.00020526
0.000183131
0.000166425
0.000152945
0.000140258
0.000134113
0.000125478
0.0001193
0.00011075
0.000100921
9.41656e-05
8.58053e-05
7.23397e-05
5.49985e-05
0.0495901
0.0338967
0.0391732
0.00873424
0.00269779
0.0024209
0.00121272
0.000358988
0.000316172
0.000234173
0.00019475
0.000164534
9.69031e-05
9.54615e-05
5.84329e-05
5.5214e-05
4.31635e-05
3.80182e-05
3.33665e-05
3.12433e-05
2.65175e-05
2.33455e-05
2.19381e-05
2.0498e-05
1.92246e-05
1.86064e-05
1.82872e-05
1.81924e-05
1.80916e-05
1.80412e-05
1.78686e-05
1.76817e-05
1.69273e-05
1.62701e-05
1.49324e-05
1.34538e-05
1.18256e-05
1.06402e-05
0.0371849
0.0292468
0.0239185
0.00626104
0.00278572
0.00216067
0.000646006
0.00038087
0.000220717
0.000219676
0.000129334
0.000125744
7.7297e-05
6.89101e-05
4.92842e-05
4.20219e-05
3.59155e-05
2.76719e-05
2.34418e-05
2.06774e-05
1.59406e-05
1.31161e-05
1.1914e-05
1.06833e-05
9.59106e-06
8.96341e-06
8.59236e-06
8.43738e-06
8.04872e-06
7.85754e-06
7.62248e-06
7.2846e-06
6.97477e-06
6.49228e-06
6.19121e-06
5.70646e-06
5.33654e-06
4.95972e-06
0.0461608
0.0398275
0.042666
0.0163638
0.00834171
0.00198149
0.000619412
0.000321
0.000188113
0.000137938
0.000121531
8.66766e-05
7.92706e-05
6.37728e-05
5.95448e-05
5.08574e-05
4.79765e-05
3.50246e-05
2.95116e-05
2.41735e-05
1.75011e-05
1.2656e-05
1.06119e-05
9.35774e-06
7.71569e-06
6.6291e-06
6.18169e-06
5.75306e-06
5.23389e-06
5.00111e-06
4.69974e-06
4.41223e-06
4.1645e-06
3.79036e-06
3.51766e-06
3.22039e-06
2.9784e-06
0.100385
0.0501284
0.0379385
0.012514
0.00649522
0.00223659
0.000619127
0.000335899
0.000258402
0.000198974
0.000187126
0.000130328
0.00011399
0.000108402
9.86981e-05
9.45387e-05
9.12603e-05
7.37725e-05
6.21216e-05
4.6146e-05
3.33251e-05
1.85917e-05
1.22768e-05
9.60961e-06
7.46279e-06
6.13509e-06
5.54711e-06
4.95534e-06
4.35604e-06
4.07943e-06
3.679e-06
3.39417e-06
3.11097e-06
2.73945e-06
2.52409e-06
2.29329e-06
2.10807e-06
0.201512
0.0875034
0.0787282
0.0393719
0.0138154
0.00597274
0.0018645
0.000704171
0.000467348
0.000366727
0.000332276
0.000319759
0.000340021
0.000325612
0.000325252
0.000249838
0.000223926
0.000195384
0.00017533
0.00012807
0.000100132
5.55272e-05
2.38395e-05
1.24264e-05
8.21644e-06
6.16713e-06
5.3465e-06
4.59915e-06
3.9399e-06
3.57184e-06
3.23258e-06
2.94027e-06
2.63414e-06
2.21205e-06
2.01472e-06
1.8334e-06
1.66197e-06
1.12792
0.351947
0.168035
0.0994476
0.0712732
0.057674
0.0178891
0.00857161
0.00536206
0.00368672
0.00292278
0.00268475
0.00274507
0.00212308
0.00162792
0.000911355
0.000561597
0.00045121
0.000411303
0.000357042
0.000285378
0.000226553
9.82493e-05
2.99331e-05
1.45416e-05
8.24154e-06
6.76407e-06
5.70399e-06
4.68769e-06
3.95923e-06
3.3263e-06
2.85176e-06
2.40816e-06
1.94492e-06
1.74662e-06
1.59648e-06
1.43417e-06
2.61114
0.896265
0.338949
0.196416
0.187352
0.198518
0.124198
0.087693
0.0691329
0.0530925
0.0421121
0.0355134
0.0301618
0.0176289
0.0083995
0.00349277
0.00128719
0.000649832
0.000508289
0.000456923
0.000406662
0.000405772
0.000346892
0.000125754
4.55105e-05
1.02245e-05
6.90158e-06
5.28795e-06
4.81764e-06
4.43399e-06
3.66872e-06
3.34081e-06
2.4308e-06
1.97843e-06
1.79893e-06
1.64502e-06
1.47599e-06
6.89598
4.07663
1.95527
0.892578
0.420425
0.224981
0.154759
0.119955
0.0948481
0.0713173
0.0544399
0.0478006
0.0400007
0.0285186
0.0142986
0.00460225
0.00127484
0.000555749
0.000374022
0.000324204
0.000292692
0.000241255
0.000224712
0.000185099
0.000101076
1.03801e-05
8.83838e-06
1.02603e-05
1.0458e-05
8.9243e-06
6.05374e-06
4.93334e-06
4.23783e-06
3.94905e-06
3.75132e-06
3.46881e-06
3.28666e-06
5.13616
4.54926
1.82306
0.881892
0.155874
0.0139313
0.0106699
0.0121325
0.013396
0.0149206
0.0157746
0.0172884
0.0186983
0.0203024
0.0213007
0.0223097
0.0232181
0.025032
0.0269776
0.0276247
0.0272365
0.0252186
0.0226514
0.0207174
0.0177368
0.0138721
0.0112011
0.0101186
0.00901898
0.00814553
0.00772686
0.00684168
0.00547602
0.00455859
0.00396025
0.00272745
0.00105402
0.000603437
0.807783
0.438617
0.220833
0.195459
0.0351002
0.0113852
0.0069835
0.00797162
0.00915594
0.0109946
0.012337
0.0139848
0.0156255
0.0171633
0.0181461
0.0183681
0.0189519
0.0203261
0.0218031
0.0231428
0.0233071
0.0221363
0.021227
0.0197808
0.017464
0.0151298
0.0129838
0.011618
0.010552
0.00919831
0.00853838
0.00772417
0.00565768
0.0040883
0.00287503
0.0016255
0.000914604
0.000766899
0.27451
0.127951
0.0320409
0.00992843
0.00310325
0.0017092
0.00119851
0.00134219
0.00135708
0.00174939
0.00183855
0.00223807
0.00254572
0.00275458
0.00291724
0.00289912
0.00302454
0.00333955
0.00362892
0.00394102
0.00409558
0.00405065
0.0039599
0.00370192
0.00331742
0.00289784
0.00251036
0.00219229
0.00194989
0.00170219
0.00150388
0.0012372
0.000919685
0.000692881
0.000529024
0.000375706
0.000272728
0.0593938
0.0214124
0.0148134
0.0039047
0.00107734
0.000746161
0.000611698
0.000332113
0.000301805
0.000288696
0.000290668
0.000287683
0.000291274
0.000285369
0.000284662
0.000277525
0.000275533
0.000291328
0.000302345
0.000313623
0.000316571
0.000306033
0.000293911
0.000272672
0.000243995
0.000218211
0.000197879
0.00017828
0.000166095
0.000152039
0.000140544
0.000125242
0.00011055
0.000100334
9.05006e-05
7.51573e-05
5.81184e-05
0.0201936
0.0136325
0.0228789
0.00608413
0.00165209
0.00113058
0.000515786
0.000275026
0.000237724
0.000180913
0.000160835
0.000136253
9.81772e-05
9.40165e-05
6.77926e-05
6.31249e-05
5.26223e-05
4.56426e-05
4.09908e-05
3.74263e-05
3.24753e-05
2.89359e-05
2.68671e-05
2.50282e-05
2.33768e-05
2.2559e-05
2.21545e-05
2.19936e-05
2.19644e-05
2.193e-05
2.17451e-05
2.12332e-05
2.00899e-05
1.883e-05
1.68875e-05
1.47076e-05
1.25489e-05
1.09685e-05
0.0141139
0.0111443
0.0116915
0.00362164
0.00206345
0.000868842
0.000384288
0.000263577
0.000184253
0.000165478
0.00012055
0.000114583
7.831e-05
7.06715e-05
5.45375e-05
4.65218e-05
4.04926e-05
3.15911e-05
2.73365e-05
2.3172e-05
1.85558e-05
1.51853e-05
1.37474e-05
1.21638e-05
1.08243e-05
9.95154e-06
9.48267e-06
9.20992e-06
8.82523e-06
8.60469e-06
8.30647e-06
7.95808e-06
7.55551e-06
7.03173e-06
6.57182e-06
5.98646e-06
5.47942e-06
5.00541e-06
0.0151548
0.0147881
0.0170184
0.00729189
0.00538053
0.00141595
0.000627519
0.000315609
0.000184835
0.000131304
0.000114971
8.64684e-05
7.8106e-05
6.63621e-05
5.87982e-05
5.15603e-05
4.74392e-05
3.59746e-05
3.1065e-05
2.49813e-05
1.88388e-05
1.43083e-05
1.22624e-05
1.05973e-05
8.773e-06
7.40254e-06
6.78015e-06
6.16453e-06
5.62153e-06
5.29917e-06
4.95694e-06
4.65245e-06
4.38484e-06
3.99473e-06
3.68545e-06
3.36483e-06
3.09248e-06
0.0276295
0.0180188
0.0166905
0.00710852
0.00399252
0.00159682
0.000525413
0.000323718
0.000241611
0.000177167
0.000157704
0.0001277
0.000113394
0.000107015
9.55226e-05
8.57472e-05
7.94187e-05
6.51438e-05
5.52477e-05
4.12372e-05
3.02729e-05
1.88677e-05
1.39637e-05
1.13814e-05
8.75712e-06
7.09673e-06
6.30217e-06
5.46305e-06
4.78779e-06
4.33374e-06
3.89336e-06
3.5224e-06
3.23044e-06
2.82856e-06
2.59166e-06
2.36189e-06
2.16343e-06
0.0697045
0.0403558
0.0403923
0.0233144
0.0137996
0.00528943
0.00167358
0.000755547
0.000554425
0.000451701
0.000425494
0.000424114
0.000446015
0.00037835
0.000351557
0.000233884
0.00018066
0.00015581
0.000134377
9.80228e-05
7.59434e-05
4.08033e-05
2.19471e-05
1.40687e-05
1.02983e-05
7.73594e-06
6.47401e-06
5.4612e-06
4.61571e-06
3.96714e-06
3.53634e-06
3.12698e-06
2.79786e-06
2.27752e-06
2.04517e-06
1.87489e-06
1.69017e-06
0.37116
0.15666
0.107401
0.0863329
0.0830249
0.0629132
0.0186461
0.0090008
0.0061912
0.00468186
0.00396523
0.00369393
0.00385845
0.0029972
0.00221852
0.00121364
0.000596332
0.000397696
0.000348517
0.000290611
0.000222298
0.000151245
6.13049e-05
2.72441e-05
1.76848e-05
1.23984e-05
1.02997e-05
8.52425e-06
6.82917e-06
5.19879e-06
4.20156e-06
3.21302e-06
2.64314e-06
2.00666e-06
1.7521e-06
1.62762e-06
1.44414e-06
0.991272
0.51719
0.341817
0.222537
0.215324
0.224255
0.130496
0.0940768
0.0758156
0.0602166
0.0487292
0.041358
0.0372103
0.0230095
0.0114612
0.00524555
0.00193526
0.000758182
0.000516107
0.000458666
0.000398166
0.000354358
0.000203906
7.54689e-05
3.17496e-05