/*--------------------------------*- C++ -*----------------------------------*\
| =========                 |                                                 |
| \\      /  F ield         | OpenFOAM: The Open Source CFD Toolbox           |
|  \\    /   O peration     | Version:  2.3.1                                 |
|   \\  /    A nd           | Web:      www.OpenFOAM.org                      |
|    \\/     M anipulation  |                                                 |
\*---------------------------------------------------------------------------*/
FoamFile
{
    version     2.0;
    format      ascii;
    class       volScalarField;
    location    "10";
    object      epsilon;
}
// * * * * * * * * * * * * * * * * * * * * * * * * * * * * * * * * * * * * * //

dimensions      [0 2 -3 0 0 0 0];

internalField   nonuniform List<scalar> 
37632
(
176.285
17.2613
2.81924
1.16962
0.42231
0.379983
0.313751
0.0744301
0.0124292
0.00873047
0.00729059
0.00691357
0.00609689
0.00600697
0.00559408
0.0062589
0.0070435
0.00788835
0.00894089
0.00985972
0.0103432
0.0103164
0.00956449
0.00843784
0.00817888
0.00775562
0.00664488
0.00550525
0.00462174
0.00425363
0.00418538
0.00395861
0.0035125
0.00342888
0.00320753
0.00276763
0.00273017
0.00258777
40.205
6.71759
1.95257
0.332829
0.0775871
0.0350323
0.0287784
0.0151432
0.0101504
0.0109871
0.00745553
0.00648708
0.00453715
0.0039503
0.00342927
0.00478364
0.00602134
0.00670821
0.00768335
0.00788494
0.00821454
0.0083477
0.00797215
0.00714286
0.00620894
0.0055493
0.00483136
0.00452394
0.00442997
0.00441169
0.00441871
0.0044821
0.00415091
0.003289
0.00311488
0.00326381
0.00326717
0.00308645
37.0823
6.45177
0.623223
0.304387
0.0498599
0.0178951
0.0112628
0.00863366
0.00700681
0.00681039
0.00493064
0.00462715
0.00314474
0.00301768
0.00121069
0.000450492
0.00032017
0.00029571
0.000354019
0.000358037
0.000412007
0.000459923
0.000431091
0.000446267
0.00047468
0.000572892
0.000540243
0.000627912
0.000777087
0.000913943
0.00118118
0.00147437
0.00174748
0.00198099
0.00221345
0.00232716
0.00227603
35.2268
6.95235
1.28734
0.165418
0.0768205
0.061983
0.0225037
0.00458573
0.00352474
0.0023268
0.00184163
0.00108637
0.000813235
0.000531074
0.00035038
0.000201899
0.000168033
0.000119733
0.000109559
9.32177e-05
8.65537e-05
8.28489e-05
8.14555e-05
8.2228e-05
9.64761e-05
0.000113325
0.000114985
0.000153279
0.000202991
0.000233638
0.000331153
0.000405061
0.000516325
0.000612833
0.000675822
0.000642755
0.000491812
34.9963
9.08831
2.1053
0.13087
0.0436332
0.0558055
0.0194865
0.00763033
0.00661855
0.0027633
0.00336496
0.000857059
0.000960256
0.000348384
0.000396172
0.000145056
0.000129346
0.000118621
8.84177e-05
8.06026e-05
7.17652e-05
5.93958e-05
5.53374e-05
5.1463e-05
4.96691e-05
4.92915e-05
5.01846e-05
5.52974e-05
6.6801e-05
7.39574e-05
9.39047e-05
0.000103142
0.000120184
0.00012246
0.000114301
9.24903e-05
6.33819e-05
3.91905e-05
35.8469
11.8428
2.20469
0.10174
0.0359193
0.0284218
0.00499699
0.00609373
0.00413844
0.00188283
0.00164937
0.000636407
0.000835041
0.000227327
0.000254097
0.000138543
0.000121292
0.000102876
9.48372e-05
7.67531e-05
7.24023e-05
5.68997e-05
5.2194e-05
4.60674e-05
4.00289e-05
3.60864e-05
3.28599e-05
2.96691e-05
2.79566e-05
2.57482e-05
2.4876e-05
2.39055e-05
2.43912e-05
2.15578e-05
2.12233e-05
1.81402e-05
1.6204e-05
1.50142e-05
35.0924
10.4998
1.66388
0.178986
0.0482364
0.0112612
0.00493698
0.0025176
0.00214992
0.00101477
0.000751993
0.000324516
0.000315931
0.000176207
0.000169455
0.000140303
0.000110725
9.85326e-05
8.12815e-05
7.02151e-05
6.83123e-05
5.59262e-05
4.95889e-05
4.53945e-05
3.91926e-05
3.66444e-05
3.08526e-05
2.86716e-05
2.42889e-05
2.22795e-05
1.90072e-05
1.73493e-05
1.47948e-05
1.36683e-05
1.1845e-05
1.10692e-05
1.00834e-05
34.3096
9.50331
1.69304
0.298048
0.0621701
0.0141884
0.0157662
0.00485165
0.00580957
0.00467604
0.00221107
0.000294256
0.000170822
0.000166221
0.000170855
0.000131605
0.000116476
0.000112287
8.09581e-05
6.74198e-05
6.26435e-05
4.99478e-05
4.48206e-05
3.7851e-05
3.89338e-05
3.3271e-05
3.11891e-05
2.73423e-05
2.58877e-05
2.14777e-05
2.01994e-05
1.65616e-05
1.53289e-05
1.27916e-05
1.18038e-05
1.01456e-05
9.19267e-06
28.5908
5.35803
1.23745
0.336958
0.0682487
0.0128011
0.00743822
0.00432975
0.00368059
0.00179214
0.00072157
0.000304125
0.00028813
0.000296261
0.000326688
0.000263623
0.00019112
0.000150147
0.000130643
8.40981e-05
6.15043e-05
5.18e-05
4.04256e-05
3.3665e-05
3.22639e-05
2.88078e-05
2.537e-05
2.42227e-05
2.22191e-05
1.91047e-05
1.79546e-05
1.50419e-05
1.33869e-05
1.20842e-05
1.0367e-05
9.4981e-06
8.3438e-06
26.0841
7.24229
2.15892
0.797974
0.241238
0.116887
0.0626571
0.0339052
0.015674
0.00744231
0.00311271
0.000757786
0.000502223
0.0006558
0.000656405
0.000608024
0.000478577
0.000297687
0.000243628
0.000201933
0.0001127
8.03987e-05
4.66491e-05
3.18024e-05
2.64677e-05
2.46368e-05
2.19353e-05
2.21051e-05
1.94095e-05
1.70716e-05
1.59683e-05
1.3175e-05
1.21629e-05
1.0712e-05
9.36512e-06
8.66152e-06
7.63356e-06
22.7796
6.81347
1.89961
0.735431
0.298714
0.104356
0.0427662
0.0201085
0.0101087
0.0049885
0.00283482
0.00235313
0.00330925
0.0024161
0.00144069
0.000829956
0.000715069
0.000397418
0.000297431
0.000301391
0.000187467
0.000110775
9.84639e-05
3.35796e-05
1.81613e-05
1.4758e-05
1.57987e-05
1.57864e-05
1.46766e-05
1.28564e-05
1.25973e-05
1.02301e-05
9.91722e-06
8.30966e-06
7.90772e-06
6.83177e-06
6.37526e-06
16.1073
7.3899
2.6887
1.19632
0.659803
0.349252
0.157214
0.0716937
0.0357292
0.019869
0.010195
0.0102643
0.0121852
0.011915
0.00567132
0.000879656
0.000199889
0.000213639
0.000297834
0.000243352
0.000211913
8.95249e-05
6.6116e-05
5.88598e-05
2.06602e-05
9.75179e-06
8.98625e-06
8.53102e-06
7.80163e-06
7.1093e-06
6.707e-06
5.76746e-06
5.48604e-06
4.75971e-06
4.50976e-06
3.9991e-06
3.78789e-06
33.6223
8.68986
1.23582
0.403395
0.234034
0.145259
0.0706682
0.0154954
0.00822109
0.00781036
0.00650958
0.00652143
0.00619674
0.00603153
0.00558696
0.00674687
0.00843361
0.0099889
0.0120875
0.0137738
0.0140343
0.0130641
0.0106532
0.0103244
0.0100557
0.0086744
0.0066873
0.0054676
0.00479481
0.00481234
0.00471072
0.00402428
0.00367919
0.00344136
0.0028076
0.00253345
0.00214505
0.00155703
28.49
7.27435
1.53016
0.407934
0.0850073
0.0473827
0.0237083
0.0155262
0.0116984
0.0127023
0.009505
0.00874933
0.0073002
0.006696
0.00610275
0.00797655
0.0102733
0.011318
0.0132117
0.0143269
0.0148024
0.0143187
0.0135083
0.012655
0.0112917
0.00972605
0.00839337
0.00739183
0.00669779
0.00632563
0.00590897
0.00533071
0.00462906
0.0037215
0.00305491
0.00251426
0.00210989
0.00237413
39.1928
3.19682
0.970046
0.528277
0.0541181
0.0171152
0.00790493
0.00682374
0.00450333
0.00577089
0.00310891
0.00337574
0.00235118
0.00234375
0.00149206
0.00108328
0.000845604
0.00101281
0.00105533
0.00122538
0.00124967
0.00127068
0.00126165
0.00120454
0.00113624
0.00111733
0.00106675
0.00105934
0.00112907
0.00119871
0.00132603
0.00145603
0.00158726
0.00170236
0.00175626
0.00176783
0.00180964
43.1223
1.83647
0.251171
0.117195
0.0700838
0.037647
0.0109319
0.00330229
0.0031285
0.00207685
0.00233751
0.000868083
0.00106252
0.000369732
0.000271538
0.000143079
0.000116618
8.89447e-05
7.78662e-05
7.02627e-05
6.61674e-05
6.59394e-05
6.63354e-05
6.99365e-05
7.72102e-05
9.9602e-05
0.000115123
0.000141185
0.000190412
0.000239704
0.000308058
0.000376246
0.000438766
0.000474826
0.000483442
0.000455075
0.000366561
54.9349
4.24398
0.692216
0.0487321
0.023811
0.0294874
0.0111956
0.00610247
0.00736287
0.00244364
0.00311986
0.000780796
0.000656902
0.000287333
0.000297528
7.54013e-05
5.34128e-05
4.01248e-05
3.02265e-05
2.72883e-05
2.06937e-05
1.84271e-05
1.67507e-05
1.60903e-05
1.58333e-05
1.74148e-05
1.86317e-05
2.2387e-05
2.86318e-05
3.43806e-05
4.50182e-05
5.43175e-05
6.42399e-05
7.10592e-05
7.41656e-05
6.93641e-05
5.61359e-05
4.30346e-05
55.6912
6.65148
0.775463
0.0484597
0.0166647
0.0194955
0.00357214
0.0027427
0.0026707
0.00115162
0.000590015
0.000429029
0.000477278
0.000136556
0.000140327
5.25131e-05
4.44132e-05
3.113e-05
2.70491e-05
2.38872e-05
1.84096e-05
1.55564e-05
1.39135e-05
1.23941e-05
1.08757e-05
9.91853e-06
9.15021e-06
8.97968e-06
8.52976e-06
8.41857e-06
8.92757e-06
9.26778e-06
1.04164e-05
1.09842e-05
1.21504e-05
1.28171e-05
1.30555e-05
1.38787e-05
45.8293
5.34341
0.72201
0.180431
0.0347942
0.00992649
0.00560309
0.00232648
0.00177314
0.000675777
0.00078643
0.000152848
0.000170276
9.11484e-05
9.89639e-05
6.31239e-05
4.87715e-05
3.75871e-05
2.7595e-05
2.38968e-05
1.85423e-05
1.46102e-05
1.30929e-05
1.25838e-05
1.00033e-05
8.65092e-06
8.16369e-06
7.21636e-06
6.25717e-06
5.90037e-06
5.25362e-06
4.79348e-06
4.51605e-06
4.15593e-06
4.01869e-06
3.86512e-06
3.83385e-06
42.0738
6.8009
1.09681
0.235294
0.0348835
0.0177967
0.0113025
0.00549984
0.00634064
0.00504248
0.00266369
0.000234117
0.000134402
9.61276e-05
8.67734e-05
8.13461e-05
7.40836e-05
6.55543e-05
5.28103e-05
3.49407e-05
2.75924e-05
1.7825e-05
1.3968e-05
1.26588e-05
9.07445e-06
8.25482e-06
7.55485e-06
7.32753e-06
6.13629e-06
5.81062e-06
4.85319e-06
4.49078e-06
3.83481e-06
3.50845e-06
3.14236e-06
2.90426e-06
2.64452e-06
35.8176
4.88771
0.949661
0.306612
0.0827793
0.0164671
0.00535896
0.00313295
0.00261543
0.00142749
0.000650193
0.000228266
0.000192566
0.000228327
0.000240469
0.000228577
0.00018935
0.000171402
0.000164802
9.73308e-05
6.91553e-05
3.54121e-05
2.07013e-05
1.51472e-05
8.25352e-06
6.89294e-06
6.22568e-06
5.9035e-06
5.01383e-06
4.7677e-06
4.05499e-06
3.73738e-06
3.30242e-06
2.99583e-06
2.67329e-06
2.48753e-06
2.24171e-06
33.2671
8.13011
1.92811
0.686395
0.24891
0.118802
0.0536892
0.0171363
0.0103441
0.00444055
0.0030076
0.00128859
0.000734353
0.000821703
0.000664846
0.000529999
0.000476879
0.000389284
0.000369085
0.0003651
0.000266351
0.000147204
6.61914e-05
2.72615e-05
1.24438e-05
7.00141e-06
5.77081e-06
5.37075e-06
4.48534e-06
4.16213e-06
3.76233e-06
3.26364e-06
2.8606e-06
2.62998e-06
2.32194e-06
2.19348e-06
1.96611e-06
30.7382
7.98076
1.60086
0.626256
0.305124
0.109653
0.065078
0.0269931
0.0134012
0.00831245
0.00729532
0.00877351
0.00906911
0.00474112
0.00216206
0.000964473
0.00065
0.000493647
0.000407442
0.000581468
0.000534459
0.000358546
0.0001966
9.88401e-05
3.42401e-05
7.85445e-06
5.14619e-06
4.23956e-06
3.55492e-06
3.46118e-06
3.00776e-06
2.87438e-06
2.37388e-06
2.20587e-06
1.96284e-06
1.86341e-06
1.70384e-06
12.5112
5.20973
1.76431
0.812004
0.438706
0.224937
0.106548
0.0531794
0.0282747
0.0172936
0.0105859
0.0102141
0.00997916
0.00892868
0.00460835
0.00101806
0.000270549
0.000261828
0.000258943
0.000237288
0.000193177
7.83034e-05
9.89949e-05
0.000134938
7.76551e-05
1.04963e-05
4.94635e-06
4.82726e-06
4.62086e-06
4.19111e-06
3.99249e-06
3.66059e-06
3.30875e-06
3.14435e-06
2.823e-06
2.67604e-06
2.48128e-06
24.179
7.02208
1.84246
0.519469
0.100759
0.0314642
0.020878
0.0125636
0.0117114
0.0115742
0.0104602
0.0109292
0.0108721
0.0111465
0.010875
0.0118387
0.0134312
0.0153627
0.0177126
0.0190659
0.0190964
0.0179366
0.0154152
0.0146343
0.0135202
0.0108653
0.00857947
0.00729223
0.00666479
0.00649198
0.00611556
0.0053652
0.00479076
0.00405438
0.00343885
0.00302264
0.00196609
0.00102061
5.32198
2.58218
0.451142
0.17964
0.0519158
0.030289
0.0223787
0.0143084
0.0133105
0.0145021
0.0122206
0.0128705
0.0115615
0.0119297
0.0111633
0.0118035
0.0131673
0.0145622
0.016149
0.0172693
0.0178919
0.0171559
0.0164715
0.0154882
0.0137317
0.0118208
0.0102728
0.00898968
0.00824868
0.00764783
0.00690817
0.00632332
0.0053361
0.00405978
0.00328455
0.00257195
0.00174156
0.00149711
6.58396
1.55724
0.311449
0.313237
0.0377825
0.0120824
0.00467556
0.00508169
0.00269117
0.00345364
0.00220307
0.00226583
0.00168156
0.00156981
0.00129433
0.00122131
0.00142797
0.001584
0.00177333
0.00195991
0.00206169
0.00201533
0.00203077
0.00187659
0.00170061
0.00156513
0.00143654
0.00134845
0.00134475
0.00133005
0.00133993
0.00135486
0.00132865
0.0012904
0.00124331
0.00111332
0.000934903
2.32148
0.478843
0.0797029
0.0429992
0.0214884
0.00653185
0.00369426
0.00137305
0.00123286
0.000802555
0.000849565
0.000407101
0.00030033
0.000233788
0.000143562
0.00012265
0.000121242
0.000119559
0.000114131
0.000115942
0.0001089
0.000103865
0.000103744
9.67573e-05
9.48947e-05
9.69392e-05
0.000103511
0.00010952
0.000126583
0.000144151
0.00016304
0.000188166
0.000203384
0.000212055
0.000208344
0.000186337
0.000139657
4.41864
0.888507
0.165463
0.0184885
0.0070923
0.00774383
0.00566208
0.00145136
0.00153773
0.00080479
0.000611679
0.000405147
0.000169225
0.000161372
6.8985e-05
5.03153e-05
3.41557e-05
2.97872e-05
2.4339e-05
2.28192e-05
1.88708e-05
1.62803e-05
1.55049e-05
1.46808e-05
1.4377e-05
1.46948e-05
1.48493e-05
1.61064e-05
1.76008e-05
1.98342e-05
2.2211e-05
2.59924e-05
2.86324e-05
3.16143e-05
3.2555e-05
3.23103e-05
2.90875e-05
2.59934e-05
4.7432
0.929122
0.209395
0.0203035
0.00931956
0.0112981
0.00254262
0.00103048
0.000642763
0.000568563
0.000218908
0.000197876
0.000112364
7.50785e-05
5.44849e-05
4.44716e-05
3.1385e-05
2.4743e-05
2.0258e-05
1.7983e-05
1.34819e-05
1.13641e-05
1.04627e-05
9.34036e-06
8.41552e-06
7.96261e-06
7.53709e-06
7.47117e-06
7.20209e-06
7.12983e-06
7.18569e-06
7.15505e-06
7.26031e-06
7.26519e-06
7.48101e-06
7.59356e-06
7.66081e-06
7.76118e-06
4.52475
1.05652
0.314261
0.0954327
0.0226842
0.0157096
0.00223495
0.000678127
0.000415532
0.00026926
0.000258581
0.000121094
0.000120173
6.8178e-05
7.01134e-05
4.67203e-05
4.53412e-05
3.35105e-05
2.59943e-05
2.1312e-05
1.60246e-05
1.12585e-05
9.499e-06
8.75558e-06
6.97271e-06
6.13286e-06
5.80134e-06
5.44045e-06
4.87418e-06
4.68435e-06
4.37038e-06
4.05906e-06
3.86881e-06
3.55316e-06
3.38495e-06
3.18498e-06
3.04804e-06
5.27431
1.63404
0.401039
0.0804052
0.0168435
0.00868358
0.0025075
0.00118272
0.00096559
0.000757765
0.000837534
0.00018138
0.000150308
9.96839e-05
9.8574e-05
9.36117e-05
9.02684e-05
7.53189e-05
6.4789e-05
4.38082e-05
3.40501e-05
1.81096e-05
1.14545e-05
8.86462e-06
6.40462e-06
5.51104e-06
5.15614e-06
4.87921e-06
4.26332e-06
4.08262e-06
3.58293e-06
3.35691e-06
3.01333e-06
2.7082e-06
2.49375e-06
2.28408e-06
2.11029e-06
7.08177
1.79068
0.419572
0.160667
0.0558517
0.0112422
0.00292431
0.00100479
0.000603097
0.0004164
0.000335488
0.000229457
0.000233823
0.00026411
0.000274598
0.00024597
0.000230036
0.00020943
0.000205052
0.000140822
0.000109513
6.78029e-05
3.03252e-05
1.58359e-05
7.01248e-06
4.95254e-06
4.39983e-06
4.04021e-06
3.56065e-06
3.39613e-06
3.04584e-06
2.83203e-06
2.5305e-06
2.24116e-06
2.03139e-06
1.8714e-06
1.7014e-06
10.3898
3.31886
0.801888
0.333572
0.149785
0.0741752
0.0257323
0.00723107
0.00306612
0.00159099
0.00122826
0.00123165
0.00115775
0.00108576
0.000846534
0.000601081
0.000514262
0.000443647
0.000399284
0.000371428
0.000312927
0.000270598
0.000149809
7.68524e-05
1.98723e-05
5.86878e-06
4.27135e-06
3.84286e-06
3.34183e-06
3.14492e-06
2.85154e-06
2.59006e-06
2.21617e-06
1.98531e-06
1.75814e-06
1.64389e-06
1.48166e-06
9.5008
3.44203
0.875463
0.386127
0.246205
0.116468
0.104274
0.0476613
0.028892
0.0221888
0.0191704
0.0205761
0.0146311
0.00831065
0.00358586
0.00138666
0.000704665
0.000566862
0.000434797
0.000436481
0.000410428
0.000444288
0.000354959
0.000261064
0.000129103
1.67662e-05
4.40111e-06
3.31442e-06
2.94178e-06
2.84824e-06
2.60417e-06
2.50209e-06
2.07511e-06
1.86634e-06
1.67819e-06
1.56946e-06
1.43257e-06
10.7304
5.05158
1.97516
0.944807
0.484329
0.243924
0.130737
0.0772028
0.0496714
0.0340767
0.0242684
0.0228193
0.0193918
0.0149862
0.00692166
0.0018201
0.000497268
0.000356162
0.000307359
0.000273764
0.000255343
0.00018588
0.000205586
0.000203603
0.000186242
4.46774e-05
5.80354e-06
5.60877e-06
5.31614e-06
4.93113e-06
4.56038e-06
4.25666e-06
3.82907e-06
3.63617e-06
3.29227e-06
3.11124e-06
2.89918e-06
11.0442
6.5717
1.79334
0.679271
0.0657611
0.0154718
0.0145116
0.013539
0.0134755
0.0138692
0.0133954
0.0141585
0.0146064
0.0154001
0.0154956
0.0162609
0.0174371
0.0194118
0.0216735
0.0227409
0.0226159
0.0211594
0.0186399
0.0175287
0.0155791
0.012204
0.00974908
0.00852668
0.00785916
0.00737803
0.00689171
0.00617954
0.00523877
0.00431579
0.00376917
0.00307268
0.00154112
0.000798501
2.15091
1.28375
0.230524
0.133667
0.0464341
0.0312323
0.0148855
0.0126853
0.0125392
0.0140483
0.0133823
0.0145057
0.0143853
0.0151293
0.0149303
0.0146769
0.015398
0.0169679
0.0184134
0.0196344
0.0201039
0.0192771
0.0186041
0.0175203
0.0154466
0.013343
0.0115699
0.0101541
0.00938212
0.00847841
0.00760987
0.0070142
0.00560723
0.00410698
0.00317622
0.00220358
0.00128748
0.000995364
1.57482
0.539702
0.120176
0.0428608
0.0114259
0.00883736
0.00285265
0.00283634
0.00198206
0.00245562
0.00202961
0.00224422
0.00212592
0.00210709
0.0019869
0.00180496
0.00198744
0.00221723
0.00243011
0.00267714
0.00280108
0.0027579
0.00272941
0.00254739
0.00226619
0.00202523
0.00180246
0.00161819
0.0015374
0.00142291
0.00133823
0.0012346
0.00106128
0.000923842
0.000821961
0.000655769
0.000486843
0.289614
0.13208
0.0344373
0.0131116
0.00692085
0.00243275
0.00163382
0.000664749
0.000566919
0.000438456
0.000416686
0.00030289
0.000242085
0.000209171
0.00018719
0.000166428
0.000165025
0.000168157
0.000169549
0.000174139
0.000170756
0.000161129
0.000157767
0.000144594
0.000131722
0.00012408
0.000118013
0.00011488
0.000117283
0.000118166
0.000119691
0.000120331
0.000117415
0.000115125
0.000108059
9.41334e-05
7.15438e-05
0.258696
0.134265
0.0592404
0.00968614
0.00373069
0.00449132
0.00322095
0.000590078
0.000563252
0.000360516
0.000274832
0.00021815
0.000105743
0.000105382
5.56098e-05
4.79887e-05
3.67974e-05
3.20009e-05
2.76017e-05
2.63605e-05
2.14987e-05
1.89656e-05
1.79054e-05
1.69256e-05
1.61053e-05
1.57901e-05
1.55933e-05
1.5968e-05
1.62181e-05
1.67558e-05
1.72398e-05
1.77033e-05
1.78808e-05
1.8143e-05
1.75444e-05
1.68949e-05
1.52908e-05
1.39606e-05
0.286519
0.120438
0.0493197
0.00976777
0.00489373
0.00557688
0.00125823
0.00057747
0.000327261
0.000331452
0.000159037
0.000150296
8.21078e-05
7.38209e-05
4.81033e-05
4.19553e-05
3.15518e-05
2.51693e-05
2.0848e-05
1.86245e-05
1.39871e-05
1.16103e-05
1.06175e-05
9.5374e-06
8.63529e-06
8.18715e-06
7.84852e-06
7.77667e-06
7.43016e-06
7.28931e-06
7.18622e-06
6.92185e-06
6.77866e-06
6.43458e-06
6.3073e-06
5.96631e-06
5.73089e-06
5.4758e-06
0.350379
0.171234
0.107134
0.0322843
0.0129229
0.00708646
0.000920841
0.000378734
0.000224994
0.000170777
0.000153223
9.16024e-05
8.30757e-05
6.26858e-05
6.00143e-05
4.93352e-05
4.75505e-05
3.43468e-05
2.81305e-05
2.31739e-05
1.66298e-05
1.151e-05
9.50901e-06
8.52654e-06
6.94727e-06
6.07516e-06
5.72795e-06
5.39857e-06
4.9102e-06
4.72367e-06
4.45863e-06
4.17109e-06
3.95688e-06
3.61225e-06
3.38645e-06
3.13215e-06
2.93337e-06
0.684881
0.261426
0.111381
0.0275219
0.0110237
0.00386171
0.000987979
0.000460574
0.000355737
0.000284172
0.000291259
0.000145339
0.000121762
0.00010715
0.000101571
9.93744e-05
9.66689e-05
7.8535e-05
6.73673e-05
4.91421e-05
3.61895e-05
1.89892e-05
1.15217e-05
8.62115e-06
6.4977e-06
5.43984e-06
5.03424e-06
4.63456e-06
4.10805e-06
3.923e-06
3.515e-06
3.28585e-06
2.99299e-06
2.66215e-06
2.46004e-06
2.24005e-06
2.06832e-06
1.14404
0.344629
0.158096
0.0818827
0.0227025
0.00709568
0.00228582
0.00074892
0.000458255
0.000336666
0.000296458
0.000263051
0.000280337
0.000295518
0.000303797
0.000257799
0.000243155
0.000214435
0.00020433
0.000149008
0.000117381
7.09898e-05
2.9087e-05
1.32164e-05
7.18973e-06
5.17016e-06
4.56043e-06
4.02958e-06
3.54943e-06
3.33799e-06
3.02512e-06
2.79956e-06
2.50895e-06
2.17097e-06
1.97942e-06
1.80801e-06
1.64437e-06
3.49644
1.06869
0.321887
0.166327
0.08965
0.0542253
0.0184833
0.00785723
0.00425875
0.00261943
0.00196791
0.00184343
0.00184138
0.00150036
0.00116866
0.00071884
0.000535268
0.000464679
0.000418342
0.000363298
0.000310399
0.000271632
0.000148726
5.03924e-05
1.59467e-05
6.1811e-06
4.88379e-06
4.22867e-06
3.64093e-06
3.30878e-06
2.92164e-06
2.63522e-06
2.24566e-06
1.91726e-06
1.72129e-06
1.58292e-06
1.4281e-06
4.09318
1.59112
0.495243
0.244199
0.186599
0.149213
0.119903
0.0722549
0.0528246
0.0402621
0.0323429
0.0290049
0.0223069
0.0126279
0.00572192
0.0022192
0.00091076
0.000601494
0.000483664
0.000420373
0.000386313
0.000398686
0.000401666
0.000201819
8.03307e-05
1.07048e-05
4.84607e-06
3.76004e-06
3.40489e-06
3.24365e-06
2.92145e-06
2.78058e-06
2.2065e-06
1.89828e-06
1.75026e-06
1.58522e-06
1.44532e-06
8.49142
4.6808
1.98145
0.952395
0.478712
0.239867
0.144708
0.0996951
0.0727886
0.0530263
0.0397597
0.0359613
0.0297752
0.0216046
0.0103871
0.00303577
0.000811046
0.000436012
0.000341094
0.000302205
0.000287765
0.000257042
0.000237482
0.000214843
0.00016766
1.54184e-05
6.55371e-06
6.68691e-06
6.33971e-06
5.76918e-06
4.94232e-06
4.58207e-06
4.09128e-06
3.87611e-06
3.58063e-06
3.35315e-06
3.14582e-06
8.57386
5.19188
1.85723
0.857477
0.164727
0.0152782
0.0130425
0.0132638
0.0136808
0.0148237
0.0150748
0.0162194
0.0171674
0.0184329
0.0189036
0.0197439
0.0206636
0.0225207
0.0246367
0.0254817
0.0252231
0.023481
0.020953
0.0194737
0.0168677
0.0131837
0.0105752
0.00944073
0.00859701
0.00785188
0.00742815
0.00660828
0.00540437
0.00446262
0.00390746
0.00290587
0.00124926
0.000697616
1.19599
0.695967
0.223352
0.125045
0.0532719
0.0177308
0.0100849
0.00981592
0.0108431
0.0124997
0.0130729
0.0146136
0.0155183
0.0167044
0.016989
0.0168049
0.0173142
0.0187888
0.020256
0.0215384
0.0218563
0.0208803
0.0201325
0.0188902
0.0166513
0.0144238
0.0124357
0.0110123
0.0101322
0.00895457
0.00814903
0.00746274
0.00566544
0.00409216
0.00300737
0.00187235
0.00105996
0.000847261
0.872277
0.372935
0.0900503
0.0198533
0.00581039
0.00461733
0.00164659
0.00176463
0.00159303
0.00197292
0.00190362
0.00227538
0.00240275
0.00248095
0.00251171
0.00239773
0.00251157
0.00279404
0.00304887
0.00333013
0.00347997
0.00343568
0.00338262
0.00315922
0.00281828
0.00247806
0.00216662
0.00190562
0.00174058
0.00154626
0.00139357
0.0012022
0.000940039
0.000747065
0.000615518
0.000459259
0.000329517
0.114007
0.0666961
0.0273549
0.00589743
0.0023248
0.00127384
0.00106039
0.000415076
0.000365077
0.000327653
0.000323069
0.000287718
0.000263474
0.000250614
0.000231013
0.000219543
0.000215313
0.000226341
0.000231777
0.000239607
0.000239916
0.000229703
0.000221564
0.000205149
0.000183105
0.000166445
0.000152959
0.000140269
0.000134125
0.000125474
0.000119292
0.000110755
0.00010092
9.41534e-05
8.58035e-05
7.23921e-05
5.50461e-05
0.049337
0.0333278
0.0390046
0.00871709
0.00269608
0.00242849
0.00121233
0.000358577
0.00031642
0.000234029
0.000194789
0.000164342
9.69457e-05
9.54645e-05
5.84275e-05
5.52119e-05
4.31455e-05
3.79971e-05
3.33539e-05
3.12324e-05
2.65036e-05
2.33405e-05
2.19373e-05
2.04968e-05
1.92233e-05
1.8605e-05
1.82848e-05
1.8189e-05
1.80871e-05
1.80359e-05
1.78635e-05
1.76769e-05
1.69241e-05
1.62688e-05
1.49343e-05
1.34597e-05
1.18318e-05
1.0645e-05
0.0364666
0.0289318
0.0237491
0.00623116
0.00278179
0.00216292
0.000645094
0.000379072
0.000220762
0.000219679
0.000129412
0.000125805
7.73355e-05
6.89626e-05
4.93095e-05
4.20393e-05
3.59295e-05
2.76704e-05
2.34498e-05
2.06789e-05
1.59371e-05
1.31172e-05
1.19156e-05
1.0683e-05
9.58995e-06
8.96229e-06
8.59119e-06
8.43593e-06
8.04699e-06
7.85618e-06
7.62141e-06
7.28388e-06
6.97445e-06
6.49268e-06
6.19205e-06
5.70787e-06
5.33832e-06
4.96135e-06
0.0452332
0.0395392
0.0423456
0.0162993
0.00831464
0.00198417
0.00062007
0.00032121
0.000188121
0.000137926
0.0001215
8.67586e-05
7.93231e-05
6.37891e-05
5.95763e-05
5.08889e-05
4.79962e-05
3.50334e-05
2.9533e-05
2.418e-05
1.74997e-05
1.26576e-05
1.06141e-05
9.35878e-06
7.71469e-06
6.62911e-06
6.18186e-06
5.7525e-06
5.23353e-06
5.00087e-06
4.69934e-06
4.41201e-06
4.16449e-06
3.79063e-06
3.51826e-06
3.22112e-06
2.97913e-06
0.0987942
0.0499185
0.0377182
0.012476
0.00647923
0.00223311
0.000619177
0.000336039
0.000258411
0.000198901
0.00018709
0.000130395
0.000114105
0.000108502
9.8786e-05
9.46157e-05
9.13089e-05
7.38019e-05
6.21679e-05
4.61644e-05
3.33301e-05
1.85936e-05
1.22783e-05
9.6105e-06
7.46167e-06
6.13544e-06
5.54764e-06
4.95512e-06
4.356e-06
4.07943e-06
3.67886e-06
3.39421e-06
3.11105e-06
2.73964e-06
2.52439e-06
2.29366e-06
2.10845e-06
0.203427
0.0878778
0.0779138
0.0389131
0.0137979
0.00599497
0.00186142
0.000703447
0.000466909
0.000366517
0.000332159
0.000319666
0.000339835
0.000325762
0.000325884
0.000250223
0.000224113
0.000195474
0.000175424
0.00012813
0.000100152
5.55202e-05
2.38352e-05
1.24254e-05
8.21601e-06
6.1678e-06
5.34751e-06
4.59938e-06
3.94013e-06
3.57203e-06
3.23256e-06
2.94026e-06
2.63413e-06
2.21214e-06
2.01491e-06
1.83367e-06
1.6622e-06
1.15274
0.358041
0.168326
0.0995251
0.0714129
0.0579276
0.0178974
0.0085631
0.00536088
0.00368708
0.00292102
0.0026816
0.00274199
0.00212312
0.00163149
0.000913051
0.000562536
0.000451326
0.000411249
0.000356983
0.000285349
0.000226526
9.81721e-05
2.99208e-05
1.45381e-05
8.24209e-06
6.76556e-06
5.70388e-06
4.68811e-06
3.95924e-06
3.32631e-06
2.85174e-06
2.40817e-06
1.94494e-06
1.7467e-06
1.59665e-06
1.43427e-06
2.63841
0.913382
0.34225
0.197075
0.187904
0.19864
0.124113
0.0875776
0.0690411
0.0530582
0.0420527
0.0354416
0.0301767
0.0176923
0.00844497
0.00351234
0.00129181
0.000650307
0.000508139
0.000456673
0.000406456
0.000405675
0.000346621
0.000125659
4.5488e-05
1.02268e-05
6.90278e-06
5.28864e-06
4.81862e-06
4.43432e-06
3.66893e-06
3.3409e-06
2.43078e-06
1.97837e-06
1.79896e-06
1.64512e-06
1.47603e-06
6.881
4.0682
1.95236
0.90875
0.431191
0.227599
0.154853
0.119503
0.0944002
0.0710361
0.0542337
0.0476624
0.0399418
0.0285696
0.0144031
0.00465066
0.00128436
0.000557009
0.000374077
0.000324041
0.00029248
0.000241068
0.000224494
0.000184892
0.000100991
1.03857e-05
8.83969e-06
1.02628e-05
1.04601e-05
8.92442e-06
6.05389e-06
4.93345e-06
4.23808e-06
3.94933e-06
3.75162e-06
3.46902e-06
3.28689e-06
5.12936
4.55721
1.83091
0.887976
0.160338
0.0141365
0.0106423
0.0120937
0.0133481
0.0148632
0.0157127
0.0172195
0.0186213
0.0202181
0.0212108
0.022217
0.0231226
0.0249298
0.0268765
0.0275355
0.0271578
0.0251709
0.0226122
0.0206914
0.017731
0.0138758
0.0111979
0.0101112
0.00901467
0.00814038
0.00772308
0.00684248
0.00547782
0.00455843
0.00396117
0.00273519
0.00105861
0.000603823
0.804243
0.438091
0.218743
0.195816
0.0359845
0.0114011
0.00698427
0.00797048
0.00914327
0.0109677
0.0123031
0.0139408
0.0155699
0.0170981
0.018074
0.0182917
0.0188728
0.0202415
0.0217129
0.0230566
0.0232371
0.0220818
0.021179
0.0197477
0.0174448
0.0151188
0.0129753
0.0116077
0.0105462
0.00919456
0.00853204
0.00772473
0.00566386
0.00409173
0.0028795
0.00163066
0.000916092
0.000766833
0.276541
0.127523
0.0320321
0.0100348
0.00314012
0.00171164
0.00119908
0.0013422
0.0013561
0.00174683
0.0018353
0.00223344
0.00253883
0.00274625
0.00290738
0.00288838
0.00301318
0.00332694
0.00361533
0.00392838
0.0040844
0.0040417
0.0039529
0.00369737
0.00331491
0.00289693
0.00250988
0.00219188
0.00194992
0.00170225
0.00150398
0.00123806
0.000920599
0.00069338
0.000529578
0.000376279
0.000273035
0.0597719
0.0214598
0.0146718
0.00388745
0.00107389
0.000747477
0.000611192
0.000332086
0.00030182
0.000288701
0.0002906
0.000287468
0.000290978
0.000284933
0.000284133
0.000276892
0.000274858
0.000290592
0.000301586
0.000312929
0.000315988
0.000305614
0.000293649
0.000272547
0.000243981
0.000218259
0.000197921
0.000178318
0.000166133
0.000152058
0.00014056
0.000125269
0.000110566
0.000100332
9.0505e-05
7.52176e-05
5.81657e-05
0.020151
0.0135532
0.02276
0.00604368
0.00164854
0.00113256
0.000515495
0.000274917
0.000237889
0.000180955
0.000160935
0.000136211
9.82212e-05
9.40234e-05
6.7787e-05
6.31232e-05
5.25997e-05
4.5621e-05
4.09757e-05
3.74111e-05
3.24614e-05
2.89295e-05
2.68662e-05
2.50276e-05
2.33762e-05
2.25582e-05
2.21526e-05
2.19907e-05
2.19602e-05
2.19249e-05
2.17402e-05
2.12292e-05
2.0088e-05
1.88303e-05
1.68911e-05
1.47145e-05
1.2555e-05
1.09728e-05
0.0140665
0.0110956
0.0115915
0.00360123
0.00206482
0.000868977
0.000383809
0.000263022
0.00018428
0.000165509
0.000120624
0.000114651
7.83592e-05
7.07314e-05
5.45592e-05
4.654e-05
4.05037e-05
3.15934e-05
2.73444e-05
2.31731e-05
1.85535e-05
1.51866e-05
1.37493e-05
1.21638e-05
1.08232e-05
9.95038e-06
9.48151e-06
9.20832e-06
8.82352e-06
8.60327e-06
8.30544e-06
7.95752e-06
7.55548e-06
7.03239e-06
6.57287e-06
5.98806e-06
5.48119e-06
5.00692e-06
0.0150893
0.0147584
0.0169137
0.00727768
0.00536807
0.00141651
0.000628226
0.000315867
0.000184824
0.000131296
0.000114984
8.65431e-05
7.81626e-05
6.63756e-05
5.88269e-05
5.15885e-05
4.74517e-05
3.59833e-05
3.10799e-05
2.49838e-05
1.88374e-05
1.431e-05
1.22647e-05
1.05982e-05
8.77223e-06
7.40256e-06
6.78025e-06
6.16394e-06
5.62109e-06
5.29884e-06
4.95653e-06
4.6522e-06
4.38482e-06
3.99507e-06
3.68612e-06
3.36563e-06
3.09323e-06
0.0275669
0.0179681
0.0166189
0.00710034
0.00399402
0.00159527
0.000525492
0.000323797
0.000241574
0.000177116
0.000157672
0.000127767
0.000113505
0.000107126
9.56168e-05
8.58138e-05
7.94491e-05
6.5161e-05
5.52689e-05
4.12423e-05
3.02733e-05
1.88685e-05
1.39653e-05
1.1382e-05
8.75614e-06
7.09707e-06
6.30256e-06
5.46291e-06
4.78773e-06
4.33369e-06
3.89322e-06
3.52238e-06
3.23054e-06
2.82878e-06
2.59197e-06
2.3623e-06
2.16385e-06
0.0703063
0.0404894
0.0401005
0.0232879
0.0138936
0.00531099
0.0016731
0.00075491
0.00055363
0.000451126
0.000425041
0.000423741
0.00044557
0.000378467
0.000352388
0.00023436
0.000180838
0.000155842
0.000134384
9.80272e-05
7.59386e-05
4.07928e-05
2.19434e-05
1.40679e-05
1.02986e-05
7.73695e-06
6.47493e-06
5.46169e-06
4.61599e-06
3.96734e-06
3.53636e-06
3.12694e-06
2.79786e-06
2.27761e-06
2.04535e-06
1.8752e-06
1.69042e-06
0.379311
0.158573
0.108089
0.0866886
0.083224
0.0632946
0.0186578
0.00899181
0.00618888
0.00468053
0.00396143
0.00368811
0.00385274
0.00299693
0.00222305
0.00121715
0.000597973
0.000397903
0.000348441
0.000290522
0.000222209
0.000151162
6.12571e-05
2.72331e-05
1.76824e-05
1.23996e-05
1.03021e-05
8.52423e-06
6.82955e-06
5.19875e-06
4.20152e-06
3.21296e-06
2.64318e-06
2.00668e-06
1.75219e-06
1.62781e-06
1.44427e-06
0.997683
0.525273
0.343394
0.225581
0.215658
0.22411
0.130383
0.093923
0.0757097
0.0601791
0.04867
0.0412688
0.037215
0.0230917
0.0115214
0.00527307
0.00194378
0.000759614
0.000516042
0.000458381
0.000397926
0.000354137
0.00020359
7.53752e-05
3.17259e-05