/*--------------------------------*- C++ -*----------------------------------*\
| =========                 |                                                 |
| \\      /  F ield         | OpenFOAM: The Open Source CFD Toolbox           |
|  \\    /   O peration     | Version:  2.3.1                                 |
|   \\  /    A nd           | Web:      www.OpenFOAM.org                      |
|    \\/     M anipulation  |                                                 |
\*---------------------------------------------------------------------------*/
FoamFile
{
    version     2.0;
    format      ascii;
    class       volScalarField;
    location    "10";
    object      k;
}
// * * * * * * * * * * * * * * * * * * * * * * * * * * * * * * * * * * * * * //

dimensions      [0 2 -2 0 0 0 0];

internalField   nonuniform List<scalar> 
37632
(
1.81705
0.398593
0.11786
0.0649963
0.0324837
0.0301192
0.0267839
0.0106735
0.00316336
0.00246206
0.00218164
0.00210544
0.00193615
0.00191693
0.001828
0.00197018
0.00213176
0.00229907
0.00249934
0.00266827
0.0027558
0.00275178
0.00261844
0.00240818
0.00235856
0.00227728
0.00205609
0.001814
0.00161392
0.00152631
0.00150999
0.00145572
0.00134394
0.0013225
0.00126545
0.00114662
0.00113616
0.00109656
0.681104
0.206232
0.0903427
0.0280268
0.010533
0.00618194
0.00544203
0.00356455
0.00272272
0.00286964
0.00221546
0.00201948
0.00159152
0.00145113
0.0013208
0.00164738
0.00192043
0.00206392
0.00225991
0.00229963
0.0023645
0.00239039
0.00231837
0.00215586
0.00196467
0.00182324
0.00166219
0.00159072
0.00156855
0.00156435
0.0015659
0.00158095
0.00150298
0.001287
0.00124021
0.00127949
0.00128059
0.00123349
0.647105
0.201164
0.042298
0.0265122
0.00788988
0.00397112
0.00291861
0.00244262
0.00212771
0.00208722
0.00168298
0.00161318
0.00124731
0.00121343
0.000660794
0.000341969
0.000271998
0.000257927
0.000290743
0.000292919
0.000321762
0.000346209
0.000331646
0.000339537
0.000353948
0.000401172
0.000385725
0.000426405
0.000491424
0.000547428
0.000649459
0.000752895
0.000843389
0.000916999
0.000987467
0.00102138
0.00100661
0.620474
0.210385
0.06774
0.0175178
0.010481
0.00905694
0.00459687
0.00160413
0.00134636
0.00102087
0.000873541
0.000614442
0.00050669
0.000381345
0.000289067
0.00020029
0.000177146
0.000141335
0.000133215
0.000119601
0.000113827
0.000110539
0.000109293
0.000109984
0.00012235
0.000136158
0.00013748
0.000166534
0.000200782
0.000220477
0.000278198
0.000318156
0.000374092
0.000419454
0.000447925
0.00043353
0.000363116
0.620306
0.248478
0.0952384
0.015223
0.00719271
0.00844977
0.00420882
0.00225361
0.00205037
0.00114475
0.00130626
0.000524968
0.00056579
0.000288225
0.000313951
0.000160651
0.000148867
0.000140452
0.000115479
0.000108583
0.000100483
8.85803e-05
8.45006e-05
8.04988e-05
7.86086e-05
7.8202e-05
7.91377e-05
8.44159e-05
9.57389e-05
0.000102442
0.000120131
0.000127895
0.00014165
0.000143483
0.000137116
0.000119154
9.26834e-05
6.72589e-05
0.62941
0.301252
0.0996858
0.012901
0.00630413
0.00539858
0.00170199
0.00194242
0.00149857
0.000887011
0.000812483
0.000430811
0.000516161
0.000216803
0.000233655
0.000155792
0.000142578
0.000127742
0.000120986
0.000105086
0.000101081
8.60819e-05
8.12761e-05
7.47764e-05
6.80908e-05
6.35475e-05
5.96956e-05
5.57682e-05
5.35978e-05
5.07352e-05
4.95824e-05
4.82873e-05
4.89322e-05
4.508e-05
4.46258e-05
4.0197e-05
3.72824e-05
3.54283e-05
0.618766
0.280093
0.0834029
0.0184762
0.00765275
0.0029163
0.00168935
0.00107845
0.000969333
0.000588629
0.000482926
0.00027507
0.000270352
0.000182962
0.000178289
0.000157135
0.000134185
0.000124139
0.000109163
9.90414e-05
9.72409e-05
8.50773e-05
7.8542e-05
7.40454e-05
6.71423e-05
6.41982e-05
5.72432e-05
5.45131e-05
4.88057e-05
4.60755e-05
4.14463e-05
3.8999e-05
3.5071e-05
3.3267e-05
3.02389e-05
2.89045e-05
2.71616e-05
0.611637
0.263815
0.0841739
0.0260886
0.00911029
0.00340258
0.00365555
0.00166436
0.00187985
0.0016273
0.000989169
0.000258195
0.000179232
0.000175967
0.000179182
0.000150551
0.000138831
0.000135471
0.000108883
9.64002e-05
9.17843e-05
7.89096e-05
7.34073e-05
6.55997e-05
6.68484e-05
6.01893e-05
5.76556e-05
5.28134e-05
5.09225e-05
4.49626e-05
4.31606e-05
3.7809e-05
3.59094e-05
3.18287e-05
3.01688e-05
2.72717e-05
2.55366e-05
0.545698
0.180831
0.0674161
0.02791
0.00958956
0.00316705
0.00221576
0.00154503
0.00138654
0.000858591
0.000468765
0.000263447
0.000253814
0.000258728
0.00027622
0.000239324
0.000193184
0.000164482
0.000149907
0.000111716
9.06828e-05
8.08728e-05
6.85285e-05
6.06675e-05
5.89767e-05
5.46726e-05
5.02392e-05
4.87177e-05
4.59881e-05
4.15867e-05
3.99006e-05
3.54574e-05
3.28091e-05
3.06434e-05
2.76671e-05
2.60991e-05
2.39387e-05
0.511399
0.216921
0.0968405
0.0498107
0.0224248
0.013859
0.00916253
0.0061089
0.00365313
0.00222467
0.0012457
0.000485021
0.00036758
0.000439155
0.000439756
0.000417791
0.000356063
0.000259499
0.000227033
0.000200404
0.000135862
0.000108443
7.54327e-05
5.84015e-05
5.16785e-05
4.92559e-05
4.55978e-05
4.58353e-05
4.20233e-05
3.85801e-05
3.68987e-05
3.24605e-05
3.07774e-05
2.82764e-05
2.58548e-05
2.4543e-05
2.25601e-05
0.466352
0.208705
0.0890379
0.0472223
0.0257361
0.0128284
0.00712544
0.00431062
0.00272828
0.00170324
0.00116705
0.00102695
0.00129008
0.00104888
0.000745112
0.000514265
0.000465086
0.000314528
0.000259203
0.000261552
0.000190613
0.000134263
0.000124129
6.05404e-05
4.0202e-05
3.50022e-05
3.66375e-05
3.66183e-05
3.48776e-05
3.19346e-05
3.15033e-05
2.74223e-05
2.6861e-05
2.38732e-05
2.30976e-05
2.09512e-05
2.00077e-05
0.369631
0.220501
0.112284
0.0653866
0.044029
0.0289875
0.0170765
0.0100832
0.00631475
0.00426783
0.00272783
0.00273607
0.00306678
0.00302956
0.00186571
0.000538684
0.00019929
0.000207898
0.000259393
0.000226744
0.000206763
0.000116437
9.51284e-05
8.80359e-05
4.3835e-05
2.65651e-05
2.5151e-05
2.42936e-05
2.28886e-05
2.15145e-05
2.06942e-05
1.87141e-05
1.81004e-05
1.64651e-05
1.58836e-05
1.46606e-05
1.41399e-05
0.956124
0.393741
0.105737
0.0505439
0.0349155
0.0255191
0.0160675
0.00587124
0.00375326
0.00362331
0.00320936
0.0032136
0.00310589
0.00305021
0.00289804
0.00328717
0.0038154
0.0042709
0.00484956
0.00529332
0.00536288
0.00511695
0.00446702
0.00437244
0.00429791
0.0038995
0.00327925
0.00286654
0.00262429
0.0026304
0.00259421
0.00233723
0.00220035
0.00210501
0.00183866
0.00171608
0.00153698
0.00124171
0.895954
0.338644
0.111488
0.0468137
0.0177655
0.0112742
0.00849109
0.00734633
0.00585997
0.00628318
0.0050952
0.00464269
0.00410571
0.0036468
0.0033434
0.00406999
0.00520699
0.00565558
0.00640103
0.00693619
0.00716173
0.00712241
0.00693836
0.00670248
0.0062532
0.00568635
0.0051567
0.0047498
0.00447596
0.00431905
0.00414287
0.00388357
0.00345994
0.00286299
0.00240561
0.00202152
0.00176941
0.00173753
0.873296
0.202218
0.0759117
0.0617486
0.0138456
0.00653446
0.00420934
0.00386616
0.00295961
0.00331375
0.00227892
0.0023097
0.00173845
0.00161356
0.0011159
0.000848875
0.000730919
0.000831152
0.000862036
0.000995721
0.00102849
0.00107951
0.00110238
0.00109753
0.00109165
0.00112039
0.00109841
0.00111627
0.00120032
0.00127
0.00138279
0.00147399
0.00154826
0.00159074
0.00158517
0.00152185
0.00135908
0.862989
0.0961807
0.0276813
0.0179238
0.0151752
0.00868707
0.00355368
0.00232608
0.00208821
0.00171491
0.00173319
0.00105788
0.00120921
0.000612348
0.000511249
0.000318013
0.0002916
0.000229502
0.000195381
0.000177263
0.000158065
0.000152347
0.000150421
0.000152122
0.00015796
0.000187625
0.000199633
0.000232298
0.000289341
0.000334622
0.000408795
0.000466467
0.000509085
0.000523174
0.000499182
0.000448707
0.000357554
1.15586
0.210521
0.0467138
0.0108579
0.00799254
0.00737501
0.00367516
0.00352297
0.00397401
0.00188993
0.00223308
0.000899416
0.000989431
0.000484927
0.000628626
0.000232083
0.000244777
0.000198086
0.000158387
0.000143322
0.000123393
0.000108883
0.00010001
9.18267e-05
8.38942e-05
8.02847e-05
7.71487e-05
7.78614e-05
8.21463e-05
8.37604e-05
9.96283e-05
0.000106009
0.000119261
0.000125975
0.000130699
0.000128165
0.000122589
0.000115631
1.21309
0.276255
0.0529758
0.0109361
0.00503539
0.00431299
0.00185263
0.00223039
0.00230202
0.00125531
0.00122207
0.000853046
0.000910933
0.00042143
0.000420085
0.000237685
0.000204122
0.00017314
0.000160726
0.000147061
0.00012742
0.000120866
0.000104058
9.7262e-05
8.63337e-05
7.7812e-05
7.1468e-05
6.78945e-05
6.04712e-05
5.66634e-05
5.35269e-05
5.15211e-05
5.09084e-05
5.12744e-05
5.19646e-05
5.40314e-05
5.48957e-05
5.72775e-05
1.07928
0.244434
0.0612897
0.0262293
0.0067881
0.0033209
0.00321446
0.00194913
0.00164501
0.00105432
0.00115952
0.000392387
0.000327099
0.000248903
0.000235463
0.000235289
0.000173116
0.00016779
0.000139836
0.000131524
0.00011852
0.000111239
0.000102224
0.00010037
8.70976e-05
7.90245e-05
7.66353e-05
6.85929e-05
6.24362e-05
5.95035e-05
5.33263e-05
4.95863e-05
4.60619e-05
4.19373e-05
3.99419e-05
3.67558e-05
3.53736e-05
1.05752
0.300923
0.0879057
0.0318952
0.00833028
0.00569426
0.00468173
0.00278248
0.00305867
0.00253549
0.00134247
0.000358897
0.000345452
0.000224369
0.000212443
0.000197763
0.00018691
0.000182575
0.000157543
0.000128337
0.000122745
0.000110594
9.75696e-05
9.38904e-05
8.0375e-05
7.77592e-05
7.29755e-05
7.18851e-05
6.49976e-05
6.25989e-05
5.55873e-05
5.26672e-05
4.66476e-05
4.37473e-05
3.95883e-05
3.75326e-05
3.45259e-05
0.973662
0.241513
0.0825316
0.0401892
0.0143747
0.00460642
0.00252691
0.00198324
0.00148638
0.000955985
0.000569409
0.000415362
0.000370145
0.00038993
0.000411041
0.000392754
0.000336355
0.000324029
0.000308879
0.000205985
0.000159496
0.000123034
9.32102e-05
8.39757e-05
7.01775e-05
6.3119e-05
6.00908e-05
5.89713e-05
5.45461e-05
5.33059e-05
4.83724e-05
4.6524e-05
4.19392e-05
3.89712e-05
3.61173e-05
3.39118e-05
3.15752e-05
0.949485
0.344348
0.127551
0.0682047
0.0349286
0.0197292
0.0123613
0.00698897
0.0045064
0.00233527
0.00153776
0.00108962
0.000868241
0.00106313
0.000946074
0.000790988
0.000706412
0.00058221
0.00055385
0.000559072
0.000424918
0.000277906
0.000159257
0.000100122
7.73453e-05
5.98223e-05
5.3513e-05
5.29919e-05
4.84276e-05
4.741e-05
4.30996e-05
4.09517e-05
3.63429e-05
3.42677e-05
3.12418e-05
2.99542e-05
2.7686e-05
0.882732
0.331175
0.105916
0.0619094
0.0363313
0.0184146
0.0208017
0.0102537
0.00530507
0.00384741
0.0035888
0.00469063
0.00551355
0.00331488
0.00193858
0.00120205
0.000924704
0.000743745
0.00058278
0.000751946
0.000693777
0.00049768
0.000349353
0.00019648
9.37712e-05
4.4097e-05
3.3679e-05
3.31101e-05
3.14756e-05
3.16895e-05
2.98076e-05
2.95465e-05
2.60598e-05
2.51783e-05
2.32211e-05
2.26647e-05
2.13558e-05
0.497294
0.277527
0.134439
0.0801087
0.0533936
0.0344322
0.0209262
0.013106
0.00856513
0.00616291
0.00443503
0.00433165
0.00426943
0.00397001
0.00257466
0.000941906
0.000387238
0.000378057
0.000375135
0.000353917
0.000308598
0.000169016
0.000197692
0.000242972
0.000168202
4.4314e-05
2.68151e-05
2.63832e-05
2.56247e-05
2.40108e-05
2.32465e-05
2.19387e-05
2.05099e-05
1.98246e-05
1.84496e-05
1.78039e-05
1.69289e-05
0.770516
0.340342
0.138658
0.0597032
0.0201109
0.00922345
0.00709265
0.00499149
0.00474589
0.00471041
0.00440298
0.00453389
0.00451796
0.00459361
0.00451826
0.00478224
0.00520315
0.00569071
0.00625786
0.00657586
0.00658484
0.00632043
0.00571388
0.00551872
0.00523758
0.00453215
0.00387126
0.00347222
0.00326862
0.00321206
0.00308803
0.00283034
0.00262457
0.00234879
0.00210407
0.00193131
0.00145266
0.000937468
0.314689
0.189504
0.0547467
0.0304271
0.0149621
0.0108656
0.0102249
0.0075832
0.00716177
0.00758175
0.0066664
0.0067837
0.00623232
0.00624809
0.00594053
0.00622426
0.00698254
0.00759376
0.0082905
0.00881744
0.00910084
0.00893814
0.00878103
0.008486
0.0078696
0.00714299
0.00650529
0.00596167
0.00565508
0.00539505
0.0050569
0.00473666
0.00410889
0.00324945
0.0026331
0.0020932
0.00159456
0.00133988
0.31242
0.125962
0.0408878
0.0399009
0.0132387
0.00607651
0.00335002
0.00342955
0.00223357
0.00256464
0.00188188
0.00183278
0.00141562
0.00130221
0.00109046
0.00102394
0.00118034
0.00128646
0.00142106
0.00157857
0.00166495
0.00168197
0.00173066
0.00167328
0.00159448
0.00153732
0.0014703
0.00142647
0.00146587
0.0014832
0.00152235
0.001554
0.00153293
0.00146788
0.00138477
0.00122047
0.000967069
0.0978936
0.0488156
0.0167003
0.0113525
0.00728291
0.00322598
0.00214705
0.00155385
0.00141714
0.00114223
0.00115703
0.000748109
0.000609084
0.000515052
0.000354137
0.000304954
0.000290038
0.000276509
0.000256178
0.00025339
0.000231888
0.000218975
0.000215846
0.000207572
0.000204731
0.000209448
0.000217886
0.000229117
0.00025723
0.000279944
0.000308811
0.000337272
0.000352328
0.000358288
0.000345783
0.000315054
0.000265898
0.164653
0.0626735
0.0241639
0.0069547
0.0041634
0.00386319
0.00288046
0.00168202
0.00171233
0.00121852
0.000991045
0.000780502
0.000547154
0.000511893
0.000329991
0.000271188
0.000224762
0.000209208
0.000185344
0.000178533
0.000158286
0.000139677
0.000131998
0.000121352
0.000111038
0.000105589
9.85726e-05
9.61488e-05
9.26334e-05
9.14033e-05
9.33494e-05
9.46662e-05
9.87335e-05
0.000102422
0.000105314
0.000106498
0.000104169
0.00010144
0.176038
0.0669842
0.0292562
0.00655461
0.00446851
0.00443241
0.00215728
0.0014793
0.00119172
0.00110013
0.000727966
0.00066142
0.000459803
0.000372822
0.000300115
0.000272863
0.000221257
0.000197666
0.000179583
0.000170269
0.000148213
0.000137395
0.000131109
0.000119005
0.000108301
0.000101499
9.331e-05
8.99169e-05
8.27359e-05
7.78478e-05
7.43181e-05
6.91886e-05
6.65377e-05
6.30196e-05
6.17497e-05
5.99513e-05
5.87889e-05
5.79195e-05
0.183109
0.0780234
0.0435443
0.0174102
0.00674081
0.00657754
0.002175
0.00119006
0.000905382
0.000756683
0.000749265
0.000451692
0.000414971
0.000285398
0.000275466
0.000220034
0.000211693
0.000191223
0.000171453
0.000162101
0.000146025
0.000134167
0.000123803
0.000120662
0.000105872
9.55006e-05
9.17362e-05
8.68792e-05
7.94336e-05
7.62446e-05
7.108e-05
6.62592e-05
6.20445e-05
5.69672e-05
5.34944e-05
4.96239e-05
4.68144e-05
0.230318
0.109411
0.0497379
0.0167867
0.00594794
0.00408462
0.00200306
0.00125651
0.00116716
0.000866659
0.000747658
0.000462289
0.000438043
0.000282065
0.000272509
0.000253107
0.000244631
0.000223929
0.000201293
0.000165333
0.000151325
0.000134057
0.000119408
0.000113671
9.91691e-05
9.19945e-05
8.86722e-05
8.57516e-05
7.87708e-05
7.62539e-05
6.98484e-05
6.59126e-05
6.05838e-05
5.55267e-05
5.16891e-05
4.80701e-05
4.48564e-05
0.313748
0.120175
0.0529639
0.0284408
0.0120277
0.00402086
0.00214518
0.00118887
0.000809798
0.000625954
0.000540657
0.000498097
0.000483982
0.000516501
0.000533434
0.000499597
0.000459348
0.000419343
0.000404119
0.000296753
0.000241305
0.000187064
0.00012961
0.000107761
8.93792e-05
7.81975e-05
7.4411e-05
7.17641e-05
6.7488e-05
6.59893e-05
6.21017e-05
5.94378e-05
5.45395e-05
4.97967e-05
4.63047e-05
4.32531e-05
4.02721e-05
0.450515
0.199928
0.0791224
0.0491663
0.0289628
0.0171271
0.00872227
0.00391504
0.00209195
0.00130256
0.00110486
0.00120297
0.00133997
0.00140102
0.00123081
0.000976484
0.000868917
0.000748667
0.000670876
0.000620027
0.000524542
0.000445191
0.000283915
0.000169703
9.80423e-05
7.22738e-05
6.51964e-05
6.3209e-05
5.88767e-05
5.7393e-05
5.42059e-05
5.16579e-05
4.62819e-05
4.28129e-05
3.92123e-05
3.73503e-05
3.46303e-05
0.420415
0.202024
0.0871087
0.0542701
0.0339292
0.0265204
0.0305444
0.0178271
0.0119883
0.00982813
0.00889162
0.00935736
0.00792855
0.00515223
0.00280793
0.00157262
0.00105055
0.000900152
0.000708252
0.000691501
0.000637011
0.000626678
0.000537394
0.000399646
0.000245832
7.74709e-05
4.35044e-05
3.95458e-05
3.75917e-05
3.7434e-05
3.67087e-05
3.61644e-05
3.28697e-05
3.09375e-05
2.91494e-05
2.81434e-05
2.65455e-05
0.4488
0.271561
0.145039
0.0890368
0.0574108
0.0364257
0.0239368
0.0167601
0.0124487
0.00967681
0.00771334
0.00741127
0.00665644
0.00561718
0.0033748
0.00138717
0.000581658
0.000464197
0.000420558
0.000389306
0.000371623
0.000300674
0.000321636
0.000319533
0.000301133
0.000116427
2.98318e-05
2.91582e-05
2.81352e-05
2.676e-05
2.54015e-05
2.42603e-05
2.26074e-05
2.18415e-05
2.04414e-05
1.96854e-05
1.87802e-05
0.457852
0.324951
0.13626
0.0715562
0.0152007
0.00573183
0.00549556
0.00523024
0.00521446
0.005315
0.00519313
0.00538874
0.00550146
0.00569901
0.00572229
0.00590965
0.00619222
0.00665151
0.0071599
0.00739628
0.00737099
0.0070564
0.00648484
0.00622524
0.00575877
0.00489683
0.00421498
0.00385314
0.00364874
0.00349863
0.00334387
0.00311004
0.00278634
0.00244856
0.00223675
0.00195377
0.00123593
0.00079568
0.184916
0.130879
0.0364235
0.0256505
0.0150632
0.0118678
0.00814267
0.00740331
0.00724614
0.00777258
0.00742295
0.00775472
0.00765968
0.00786959
0.00781931
0.00779347
0.00826825
0.00895026
0.00958713
0.0101297
0.0103654
0.0101396
0.00995667
0.00962287
0.00888489
0.00807206
0.00733463
0.00672127
0.00638922
0.00598155
0.00555243
0.00518694
0.00431611
0.0032994
0.00255831
0.00191054
0.00137252
0.00112163
0.15595
0.0839951
0.0262018
0.011449
0.00608847
0.00518463
0.0025973
0.0024247
0.00187506
0.00208096
0.00178011
0.00183932
0.00170829
0.00165956
0.00157982
0.00145962
0.00159741
0.00175293
0.00191234
0.00211731
0.00222589
0.00225537
0.00228719
0.0022218
0.0020754
0.00193989
0.00179973
0.0016903
0.00165821
0.00159863
0.00155908
0.001498
0.00135367
0.00121407
0.00110095
0.0009081
0.000676199
0.0409616
0.0257443
0.0114816
0.00582007
0.00380328
0.00238119
0.00173098
0.00115976
0.00104767
0.000882326
0.00085223
0.00064096
0.000535114
0.000477872
0.000395459
0.000361704
0.000343502
0.000334691
0.000327165
0.000328132
0.000310425
0.000296515
0.000291036
0.000279805
0.000267105
0.000261106
0.000257129
0.000256146
0.000263647
0.000270081
0.00027824
0.000282596
0.000280197
0.000274247
0.000261431
0.000238089
0.000206859
0.0254417
0.020666
0.01533
0.00540733
0.00351858
0.00357653
0.00265775
0.00122023
0.00121019
0.000972677
0.000819478
0.000682582
0.000470119
0.000474151
0.00031315
0.000287397
0.000246867
0.000228167
0.000209288
0.000203899
0.000177903
0.000161137
0.000151942
0.000142043
0.00013096
0.00012471
0.000117648
0.000114732
0.000108905
0.000105307
0.000102439
9.90087e-05
9.74535e-05
9.43501e-05
9.29503e-05
9.02748e-05
8.69176e-05
8.36437e-05
0.0254383
0.019855
0.0136334
0.00469643
0.00364418
0.00366769
0.00176646
0.00123879
0.000958543
0.000946452
0.000660496
0.000623133
0.000420457
0.000395143
0.000298206
0.000277212
0.00024142
0.000217879
0.000201162
0.000192676
0.000169613
0.00015545
0.000149145
0.000136545
0.000124695
0.000117081
0.000109104
0.0001058
9.82781e-05
9.3447e-05
8.95334e-05
8.36301e-05
8.0093e-05
7.46201e-05
7.21354e-05
6.78613e-05
6.51842e-05
6.21685e-05
0.0308169
0.0247943
0.022759
0.00883977
0.00556978
0.00460938
0.00151364
0.000984771
0.000735284
0.00063187
0.000594421
0.000421185
0.000383351
0.000302353
0.000282613
0.000247472
0.000238529
0.000213266
0.000198403
0.000189655
0.000169588
0.000154208
0.000142458
0.000136814
0.000121141
0.000109365
0.000104642
9.96932e-05
9.19969e-05
8.83654e-05
8.34009e-05
7.82203e-05
7.38212e-05
6.80143e-05
6.3861e-05
5.93609e-05
5.58094e-05
0.0563003
0.0325331
0.0239101
0.00926689
0.00514252
0.00278815
0.00139988
0.000971148
0.000864974
0.000687717
0.000628351
0.000464961
0.000395486
0.00032837
0.000302207
0.000290824
0.000280157
0.000248295
0.000226283
0.000198101
0.000176052
0.00015453
0.000138946
0.000132182
0.000116083
0.000105463
0.000101381
9.6789e-05
8.95956e-05
8.67156e-05
8.02498e-05
7.58596e-05
7.03346e-05
6.42108e-05
6.00717e-05
5.58082e-05
5.22506e-05
0.0892855
0.0436247
0.032045
0.0189309
0.00727425
0.00369632
0.00223093
0.00112275
0.000849818
0.000666863
0.000596934
0.000554478
0.000550974
0.000577423
0.000591407
0.000532851
0.000509683
0.00045018
0.000421293
0.000323943
0.000272712
0.000207878
0.000148023
0.000123017
0.00010564
9.19268e-05
8.69346e-05
8.2491e-05
7.76535e-05
7.55872e-05
7.17346e-05
6.88473e-05
6.36734e-05
5.7253e-05
5.34674e-05
4.98554e-05
4.64592e-05
0.228192
0.100325
0.0515881
0.0347745
0.0222068
0.0179006
0.00786903
0.00422098
0.00263445
0.00185623
0.00158485
0.00166704
0.00182702
0.00175615
0.00153841
0.00111962
0.000923675
0.00081782
0.000725091
0.000633015
0.000537471
0.000462093
0.000293482
0.000154813
0.000103079
8.39716e-05
7.84661e-05
7.32325e-05
6.84787e-05
6.56832e-05
6.20838e-05
5.93691e-05
5.37119e-05
4.81502e-05
4.48272e-05
4.23137e-05
3.93842e-05
0.279653
0.145775
0.0701394
0.0434573
0.033672
0.0385001
0.0346874
0.0244186
0.0188202
0.0153377
0.0132112
0.0124819
0.0104871
0.0069044
0.00392714
0.00214231
0.00125123
0.000963628
0.000796592
0.000702193
0.000628691
0.000607409
0.000597519
0.000342387
0.000183905
7.38263e-05
5.16595e-05
4.51976e-05
4.33094e-05
4.24236e-05
4.18509e-05
4.13466e-05
3.74202e-05
3.43845e-05
3.31154e-05
3.16272e-05
2.99156e-05
0.383165
0.257819
0.145393
0.0897875
0.057131
0.0360166
0.0255435
0.0198341
0.0160509
0.012996
0.0107254
0.0100418
0.00886211
0.00717289
0.00442032
0.00195086
0.000806882
0.000531505
0.000450843
0.000415811
0.000402407
0.000373207
0.000354051
0.000331151
0.000280736
5.73046e-05
3.23492e-05
3.27862e-05
3.16409e-05
2.97122e-05
2.68004e-05
2.54816e-05
2.36281e-05
2.27922e-05
2.16187e-05
2.0693e-05
1.98309e-05
0.386443
0.276947
0.139584
0.0835154
0.0281166
0.0057212
0.00510769
0.00516204
0.00526914
0.00555781
0.00562
0.00590077
0.00612805
0.00642559
0.00653418
0.00672686
0.00693465
0.00734442
0.00779918
0.00797963
0.00792743
0.00756348
0.00701097
0.0066786
0.006073
0.00515551
0.00444945
0.00412356
0.00387429
0.0036471
0.00351507
0.00325264
0.00284505
0.00250363
0.00229156
0.00188377
0.00107434
0.000726882
0.124848
0.0849491
0.0343674
0.0231062
0.0153178
0.0092778
0.00657052
0.00657302
0.00681548
0.00740757
0.00755127
0.00808884
0.00838737
0.00878705
0.00893861
0.0089429
0.00929373
0.00994578
0.0105704
0.011115
0.0112967
0.0110064
0.0107755
0.0103769
0.00956974
0.00870847
0.00788212
0.00725447
0.00686604
0.00631492
0.00588479
0.00544686
0.00435017
0.003267
0.00244351
0.00174576
0.00127122
0.00111094
0.126581
0.0725773
0.0254314
0.00834106
0.00397247
0.00381465
0.00190754
0.00181065
0.00161717
0.00180225
0.0017224
0.00188578
0.00193397
0.00194809
0.00196258
0.00188718
0.00198386
0.00217608
0.00236572
0.00259983
0.00273581
0.00277352
0.00279805
0.00271815
0.00253732
0.00233453
0.00213186
0.00195799
0.00185855
0.00172907
0.00162761
0.00148742
0.00126568
0.00107647
0.000944478
0.000760599
0.00057755
0.034511
0.0204049
0.0112756
0.00405723
0.00249187
0.00198293
0.00166722
0.000925288
0.00083287
0.000746828
0.000731613
0.000608775
0.000536508
0.000509563
0.000444625
0.000426314
0.000405571
0.000403452
0.000400196
0.000404754
0.000394726
0.000382481
0.000374249
0.000361591
0.00034183
0.000328748
0.000316639
0.000309631
0.000306889
0.000302411
0.000300734
0.000292024
0.00027963
0.000267986
0.000252859
0.000227143
0.000195413
0.0148088
0.0115547
0.0130372
0.00539923
0.00327394
0.00305411
0.00190418
0.00102287
0.000966195
0.000819243
0.000737047
0.000632915
0.000437031
0.000441998
0.00031674
0.000309406
0.000266409
0.000247305
0.000229057
0.000220243
0.0001963
0.000177747
0.000168196
0.00015682
0.000146077
0.000139115
0.000132728
0.000129865
0.000124292
0.000120774
0.000117193
0.00011209
0.000108247
0.000102303
9.7415e-05
9.0945e-05
8.49885e-05
7.99969e-05
0.0110507
0.0106135
0.00935218
0.00419457
0.00292212
0.00259808
0.00136477
0.00101275
0.000758563
0.000764492
0.00055556
0.000553171
0.000398615
0.00037364
0.00030645
0.000280383
0.000263496
0.000234239
0.000220017
0.000210492
0.000187293
0.000170548
0.000162701
0.000150016
0.000136978
0.000127736
0.000119739
0.000115705
0.000108271
0.000103491
9.90667e-05
9.31477e-05
8.92006e-05
8.30605e-05
7.97728e-05
7.46872e-05
7.10818e-05
6.72908e-05
0.011379
0.0122283
0.0128145
0.00677469
0.00485516
0.0024938
0.00134818
0.000924252
0.000660029
0.000544933
0.000510801
0.000411571
0.000386074
0.000323366
0.000301189
0.000270835
0.00026021
0.000231071
0.000219695
0.000210187
0.000188927
0.000171093
0.00015831
0.000150028
0.000133506
0.000120566
0.000114862
0.000109035
0.000101272
9.70502e-05
9.18094e-05
8.65972e-05
8.19856e-05
7.57883e-05
7.12231e-05
6.64014e-05
6.24643e-05
0.0190535
0.0143732
0.012761
0.00638367
0.00421087
0.00219413
0.00117081
0.00087205
0.000762765
0.000650136
0.000605249
0.000452625
0.000387364
0.000355005
0.000318546
0.000305757
0.00029209
0.000256953
0.000236802
0.000215688
0.000193868
0.000171495
0.000155897
0.000147888
0.000130259
0.000117036
0.000111602
0.000105747
9.81369e-05
9.45197e-05
8.79023e-05
8.29828e-05
7.73704e-05
7.04508e-05
6.60084e-05
6.14992e-05
5.76753e-05
0.0350125
0.0232116
0.0214387
0.0120326
0.00592777
0.00368292
0.00191021
0.00108435
0.000853586
0.000712816
0.000644606
0.00060319
0.000611491
0.000607172
0.000610475
0.000527962
0.000495336
0.000433422
0.000389828
0.000308038
0.000264473
0.000206018
0.000158154
0.0001381
0.000120554
0.000104325
9.78441e-05
9.19649e-05
8.60204e-05
8.30342e-05
7.87857e-05
7.58354e-05
7.07469e-05
6.25755e-05
5.84968e-05
5.46869e-05
5.09559e-05
0.114165
0.0567188
0.0380479
0.0269605
0.0216293
0.0189288
0.00790582
0.00448997
0.00313892
0.00240206
0.0021279
0.00216857
0.00240025
0.00220445
0.00188161
0.00126975
0.000943924
0.000815441
0.000722618
0.00062373
0.000512984
0.000416922
0.00024595
0.000145179
0.00011647
9.85739e-05
9.27611e-05
8.45784e-05
7.81034e-05
7.3146e-05
6.81922e-05
6.5293e-05
5.97163e-05
5.19514e-05
4.85406e-05
4.58918e-05
4.26827e-05
0.244847
0.110153
0.057385
0.0405746
0.0369425
0.0477646
0.0363555
0.0284276
0.0233649
0.0191332
0.0162331
0.0146344
0.0128604
0.00865204
0.00513764
0.00293856
0.00156488
0.00101059
0.000829397
0.00074072
0.000651492
0.000625298
0.000550923
0.00025777
0.000135599
7.73361e-05
6.66772e-05
5.28501e-05
5.00696e-05
4.7817e-05
4.64206e-05
4.61208e-05
4.10613e-05
3.6683e-05
3.52406e-05
3.40319e-05
3.20783e-05
0.333511
0.235046
0.144056
0.0876
0.0536249
0.034726
0.0266522
0.0223523
0.0190866
0.0157988
0.0131986
0.0121173
0.0107813
0.00864221
0.00549517
0.00259221
0.00109705
0.000626285
0.000479576
0.000435598
0.00040677
0.00035757
0.00034094
0.000299533
0.000200188
4.39835e-05
3.94917e-05
4.36267e-05
4.41829e-05
3.97399e-05
3.06808e-05
2.67676e-05
2.41899e-05
2.30784e-05
2.23018e-05
2.1167e-05
2.04196e-05
0.274443
0.254107
0.138565
0.0857275
0.0277885
0.00545767
0.00446078
0.00485557
0.00518443
0.00556862
0.00577853
0.006142
0.00647039
0.00683501
0.00705664
0.00727839
0.00747506
0.00785981
0.00826577
0.00840335
0.00832832
0.00792244
0.00737689
0.00695527
0.00627898
0.0053344
0.00462214
0.0043167
0.00399937
0.00373601
0.00360757
0.00332924
0.00287084
0.00253924
0.00231271
0.00181
0.000962305
0.000660146
0.0881031
0.0517812
0.0317116
0.0286524
0.0117891
0.00747966
0.00526534
0.00586892
0.0062385
0.0069845
0.0074377
0.00806928
0.00867168
0.00920789
0.00961639
0.00976556
0.0101079
0.0107205
0.0113314
0.0118778
0.0120059
0.0116497
0.0113481
0.0108668
0.0100244
0.00912761
0.00824207
0.00763394
0.00715845
0.00650618
0.00611943
0.00559279
0.00433573
0.00323352
0.00235596
0.00162178
0.00121129
0.00110944
0.06266
0.0322092
0.0122972
0.00516953
0.00282766
0.00210255
0.00157851
0.00151846
0.00146085
0.00166833
0.00169896
0.00191302
0.00207752
0.00217351
0.00227164
0.00225721
0.00235756
0.00257313
0.00278741
0.00304681
0.00319818
0.00324143
0.00325237
0.00315921
0.00295629
0.00270331
0.00244738
0.00222949
0.00206762
0.00188889
0.00174257
0.00153444
0.00125862
0.00104123
0.000885314
0.000713057
0.000560188
0.0286063
0.0121334
0.00769362
0.00338633
0.00177365
0.00152825
0.00131733
0.000806869
0.000720644
0.00066107
0.00064523
0.000599176
0.000558498
0.000539269
0.000505772
0.000491948
0.000477845
0.0004786
0.00048321
0.00049073
0.00048701
0.000476638
0.000466514
0.000450525
0.000425929
0.000405357
0.000388813
0.000375958
0.000369368
0.000362097
0.000357297
0.000343802
0.000325555
0.000308945
0.000289326
0.000256597
0.000218553
0.0126821
0.00899124
0.010081
0.00441336
0.00244575
0.00218826
0.00128538
0.000856262
0.000783687
0.000646587
0.000603467
0.000532796
0.0004213
0.000412175
0.000331211
0.000320902
0.00028771
0.000263491
0.000247155
0.000233691
0.000210874
0.000192261
0.000181035
0.000169126
0.000158145
0.000151028
0.000145417
0.000142671
0.000138635
0.000136374
0.000133655
0.000129487
0.000124751
0.000118007
0.000110583
0.000101477
9.27716e-05
8.54915e-05
0.00919073
0.00763318
0.00672203
0.00350854
0.00273973
0.00175975
0.00105194
0.000818816
0.000652436
0.000610523
0.000498861
0.000490828
0.000388813
0.000367053
0.000316559
0.00029341
0.000277843
0.000248993
0.000235477
0.000222198
0.000201293
0.00018241
0.000173359
0.000159697
0.000145941
0.000135162
0.000127081
0.000121773
0.000114436
0.000109389
0.000104516
9.89222e-05
9.46942e-05
8.87997e-05
8.50087e-05
7.98159e-05
7.56983e-05
7.16048e-05
0.00850696
0.00855508
0.00800085
0.00498857
0.00430536
0.00231089
0.00141306
0.000904914
0.000639689
0.000513394
0.000473423
0.000402136
0.000377917
0.000338958
0.000310346
0.000288675
0.000275463
0.000247385
0.000236967
0.000224527
0.000203677
0.000184327
0.000171329
0.000160551
0.000143354
0.000129379
0.000122626
0.00011553
0.000107894
0.000102869
9.71899e-05
9.19148e-05
8.71931e-05
8.08431e-05
7.60919e-05
7.12366e-05
6.71886e-05
0.0114777
0.00957265
0.0083585
0.00504894
0.00348591
0.00205272
0.00111818
0.000855549
0.000708086
0.000572465
0.000522572
0.000438633
0.000386587
0.000361843
0.00032603
0.000311279
0.000294295
0.000260862
0.000244113
0.000225612
0.000206742
0.000184933
0.000170358
0.000161
0.000141607
0.00012645
0.000119632
0.000112312
0.000104921
0.000100282
9.33458e-05
8.77921e-05
8.21623e-05
7.4642e-05
6.99253e-05
6.54503e-05
6.14823e-05
0.0227592
0.0168495
0.0141808
0.0093582
0.00642307
0.00354942
0.0017933
0.00111254
0.000901794
0.000763164
0.000713015
0.000692328
0.000703311
0.000644443
0.000620086
0.000503111
0.000444128
0.000387327
0.000338514
0.000279784
0.000249734
0.000201768
0.000168486
0.000153126
0.000133985
0.000115209
0.000106924
0.000100144
9.36041e-05
8.909e-05
8.40786e-05
8.08477e-05
7.6279e-05
6.64153e-05
6.17259e-05
5.80954e-05
5.41022e-05
0.0589491
0.0373959
0.0286716
0.0266295
0.0264871
0.020493
0.0081494
0.00469066
0.00357746
0.002961
0.00273658
0.00277714
0.00307538
0.00278215
0.00226614