/*--------------------------------*- C++ -*----------------------------------*\
| =========                 |                                                 |
| \\      /  F ield         | OpenFOAM: The Open Source CFD Toolbox           |
|  \\    /   O peration     | Version:  2.3.1                                 |
|   \\  /    A nd           | Web:      www.OpenFOAM.org                      |
|    \\/     M anipulation  |                                                 |
\*---------------------------------------------------------------------------*/
FoamFile
{
    version     2.0;
    format      ascii;
    class       volScalarField;
    location    "10";
    object      k_0;
}
// * * * * * * * * * * * * * * * * * * * * * * * * * * * * * * * * * * * * * //

dimensions      [0 2 -2 0 0 0 0];

internalField   nonuniform List<scalar> 
37632
(
1.82933
0.388626
0.116119
0.0645923
0.032752
0.0305252
0.0268662
0.0102955
0.00312209
0.00246703
0.00218772
0.00211163
0.00194188
0.00192274
0.00183359
0.00197613
0.00213801
0.00230572
0.00250652
0.00267542
0.00276219
0.00275742
0.00262175
0.00241159
0.00236199
0.00227979
0.00205656
0.00181413
0.00161443
0.00152753
0.00151115
0.00145606
0.0013445
0.00132308
0.0012655
0.00114698
0.0011366
0.00109673
0.682867
0.207153
0.090898
0.0279446
0.0105846
0.00622963
0.00546421
0.00356146
0.00272775
0.00287567
0.00222059
0.00202387
0.00159467
0.00145402
0.00132317
0.00165192
0.0019258
0.0020696
0.0022656
0.00230506
0.00236886
0.00239439
0.00232202
0.00215807
0.0019656
0.00182379
0.00166289
0.00159158
0.00156946
0.00156514
0.0015668
0.00158175
0.00150284
0.00128684
0.00124102
0.00128026
0.00128114
0.00123345
0.647035
0.201652
0.0424534
0.0263289
0.00788226
0.00398082
0.00292357
0.00244876
0.00213057
0.00209057
0.00168559
0.00161569
0.00124893
0.00121506
0.000660955
0.000341933
0.000272314
0.000258262
0.000291184
0.000293383
0.000322171
0.000346689
0.000332044
0.000339792
0.000354066
0.000401358
0.00038596
0.00042666
0.000491809
0.000547977
0.00065017
0.000753737
0.000844158
0.000917777
0.000988242
0.0010218
0.00100678
0.625266
0.211952
0.0688564
0.0175336
0.0105148
0.00911307
0.00463787
0.00160604
0.00134762
0.0010217
0.000874216
0.000614896
0.000506945
0.00038158
0.000289185
0.00020025
0.000177179
0.000141349
0.000133224
0.000119623
0.000113852
0.000110579
0.000109336
0.000110026
0.000122395
0.00013626
0.000137587
0.00016665
0.000200972
0.000220722
0.000278506
0.000318539
0.000374483
0.000419802
0.000448096
0.000433358
0.000362534
0.622536
0.253399
0.0955781
0.0149984
0.00721154
0.00849704
0.00421345
0.00225517
0.00205112
0.00114578
0.00130658
0.000524997
0.000566336
0.000288086
0.000313862
0.000160635
0.000148817
0.000140473
0.000115481
0.000108571
0.000100483
8.85768e-05
8.44946e-05
8.05032e-05
7.86213e-05
7.82223e-05
7.91644e-05
8.44538e-05
9.5794e-05
0.000102519
0.00012021
0.000127969
0.000141704
0.000143487
0.000137041
0.000119
9.24967e-05
6.71331e-05
0.632583
0.30231
0.0985633
0.0126807
0.00633434
0.00541897
0.00170068
0.00194121
0.00149982
0.000887205
0.000812261
0.0004305
0.000515967
0.000216729
0.000233426
0.00015579
0.000142573
0.000127749
0.000121005
0.000105087
0.000101077
8.60775e-05
8.12637e-05
7.47731e-05
6.80872e-05
6.35397e-05
5.96935e-05
5.57638e-05
5.35968e-05
5.07358e-05
4.95834e-05
4.82853e-05
4.89371e-05
4.50698e-05
4.46024e-05
4.01709e-05
3.7259e-05
3.5412e-05
0.623675
0.279
0.0817017
0.0184797
0.00771022
0.0029233
0.00168703
0.00107681
0.000969239
0.000587573
0.000481163
0.000274773
0.000269905
0.00018288
0.000178177
0.000157107
0.000134167
0.000124128
0.00010918
9.90307e-05
9.72334e-05
8.50928e-05
7.85367e-05
7.40432e-05
6.71355e-05
6.4193e-05
5.72371e-05
5.45069e-05
4.88002e-05
4.60702e-05
4.14409e-05
3.89946e-05
3.50663e-05
3.32628e-05
3.02347e-05
2.88998e-05
2.71574e-05
0.614366
0.261056
0.0826536
0.0259622
0.0091314
0.00341014
0.00365849
0.00166754
0.00188038
0.00162705
0.000987533
0.000257415
0.000179134
0.000175903
0.000179157
0.000150544
0.000138773
0.000135426
0.000108891
9.63847e-05
9.1777e-05
7.89151e-05
7.34178e-05
6.55945e-05
6.68397e-05
6.01903e-05
5.76525e-05
5.28088e-05
5.09188e-05
4.49581e-05
4.31561e-05
3.78051e-05
3.59052e-05
3.18249e-05
3.01646e-05
2.72689e-05
2.55335e-05
0.544044
0.178164
0.067066
0.0281752
0.00971731
0.00318406
0.00221715
0.0015457
0.00138706
0.000858483
0.000468096
0.000263138
0.000253829
0.000258583
0.000275998
0.000239224
0.000193058
0.000164372
0.00014981
0.000111688
9.06609e-05
8.08543e-05
6.85363e-05
6.06646e-05
5.89696e-05
5.46793e-05
5.02377e-05
4.87114e-05
4.59868e-05
4.15824e-05
3.98963e-05
3.54556e-05
3.28047e-05
3.06405e-05
2.76642e-05
2.6096e-05
2.39364e-05
0.511761
0.217805
0.0971943
0.0500582
0.0225483
0.01391
0.00917903
0.00609528
0.00364421
0.00221797
0.00124044
0.000483631
0.000367633
0.000439202
0.000439472
0.000417603
0.000356
0.000259412
0.00022697
0.000200272
0.000135758
0.000108388
7.54013e-05
5.84059e-05
5.16766e-05
4.92651e-05
4.55944e-05
4.58295e-05
4.20235e-05
3.85773e-05
3.68968e-05
3.24576e-05
3.07733e-05
2.82746e-05
2.58519e-05
2.45403e-05
2.2558e-05
0.467571
0.20912
0.0892467
0.0474072
0.0260008
0.0128972
0.00711568
0.00430265
0.00272028
0.00169875
0.00116547
0.00102939
0.00129212
0.00104767
0.000742214
0.00051387
0.000465281
0.00031452
0.000259263
0.000261559
0.000190589
0.000134208
0.00012407
6.05619e-05
4.02021e-05
3.50081e-05
3.66352e-05
3.66161e-05
3.48792e-05
3.19322e-05
3.15018e-05
2.74202e-05
2.68582e-05
2.38711e-05
2.3095e-05
2.09494e-05
2.00055e-05
0.371106
0.220754
0.112507
0.0655714
0.0440987
0.0288564
0.016949
0.0100416
0.00631197
0.00426842
0.00273573
0.00274813
0.0030811
0.00303538
0.00185043
0.000534185
0.000198918
0.00020794
0.000259497
0.000226798
0.000206818
0.000116443
9.5138e-05
8.80432e-05
4.38099e-05
2.65587e-05
2.51498e-05
2.42931e-05
2.28879e-05
2.1513e-05
2.06936e-05
1.87128e-05
1.8099e-05
1.6464e-05
1.58825e-05
1.46597e-05
1.41389e-05
0.962176
0.390401
0.106367
0.0504262
0.035077
0.025523
0.0157877
0.0057408
0.00376232
0.00363594
0.00322012
0.00322402
0.0031161
0.00306047
0.00290817
0.0032979
0.00382688
0.00428399
0.00486475
0.00530728
0.005374
0.00512337
0.00447187
0.00437937
0.00430307
0.00389938
0.00327846
0.0028666
0.00262634
0.00263274
0.00259554
0.00233684
0.00220126
0.00210534
0.0018382
0.0017165
0.00153625
0.0012408
0.896097
0.340193
0.113383
0.0467688
0.0177784
0.0112118
0.00840865
0.00735073
0.00586846
0.00629535
0.00510791
0.00465551
0.00411764
0.00365874
0.00335381
0.0040839
0.00522468
0.00567506
0.00642131
0.00695553
0.0071793
0.00713609
0.00695045
0.0067126
0.00625928
0.00568941
0.00515917
0.00475212
0.00447851
0.00432144
0.00414444
0.0038844
0.00345904
0.00286162
0.00240484
0.00202038
0.00176973
0.00173782
0.874246
0.203899
0.0761056
0.0614202
0.0137538
0.00652852
0.00421522
0.00387377
0.00296359
0.00331957
0.00228302
0.00231393
0.00174187
0.00161722
0.00111736
0.000849435
0.000732757
0.000833334
0.000864534
0.000998171
0.00103086
0.00108146
0.00110417
0.00109884
0.00109249
0.00112098
0.00109895
0.00111684
0.00120103
0.00127089
0.00138379
0.00147503
0.00154923
0.00159151
0.00158561
0.00152182
0.00135786
0.877703
0.0971134
0.027877
0.0180033
0.0152356
0.00878198
0.00357025
0.00232816
0.00209395
0.00171637
0.001737
0.00105858
0.00121033
0.000613063
0.00051173
0.000318026
0.000291688
0.000229626
0.000195428
0.000177334
0.00015813
0.000152408
0.000150485
0.000152192
0.000158003
0.000187719
0.000199767
0.000232441
0.000289564
0.000334923
0.000409119
0.000466785
0.000509295
0.000523226
0.000499026
0.00044834
0.000357019
1.15272
0.210761
0.0465641
0.01084
0.00800247
0.00740541
0.00367015
0.00353032
0.00397705
0.0018915
0.00223418
0.000899799
0.000990655
0.000484943
0.000629498
0.000232025
0.000244504
0.000198191
0.000158349
0.000143324
0.000123401
0.000108859
9.99992e-05
9.18213e-05
8.38891e-05
8.02839e-05
7.71512e-05
7.78666e-05
8.21701e-05
8.37857e-05
9.96639e-05
0.000106057
0.000119286
0.000125977
0.000130669
0.000128093
0.000122501
0.000115556
1.2161
0.275015
0.0524236
0.010998
0.00505271
0.00432458
0.00184987
0.0022245
0.00230261
0.00125535
0.00122102
0.000853189
0.000911587
0.000420974
0.000419519
0.000237565
0.000204035
0.000173159
0.000160758
0.000147088
0.00012741
0.000120843
0.000104045
9.72569e-05
8.63305e-05
7.78054e-05
7.14601e-05
6.78874e-05
6.04663e-05
5.66567e-05
5.35245e-05
5.1519e-05
5.09078e-05
5.12739e-05
5.19603e-05
5.40161e-05
5.48732e-05
5.72488e-05
1.08868
0.24335
0.0613047
0.026543
0.00682765
0.00332729
0.0032128
0.00194267
0.00164571
0.00105256
0.00115664
0.000392194
0.000327145
0.00024887
0.000235369
0.000235249
0.000173072
0.00016778
0.00013986
0.000131535
0.000118518
0.000111243
0.000102216
0.000100355
8.71157e-05
7.90169e-05
7.66237e-05
6.85923e-05
6.24297e-05
5.94967e-05
5.33249e-05
4.95824e-05
4.60607e-05
4.19351e-05
3.99403e-05
3.67528e-05
3.53685e-05
1.05866
0.298136
0.087676
0.0320323
0.00834033
0.00569703
0.00468508
0.00278767
0.00306389
0.00253893
0.00133855
0.000358259
0.000345335
0.00022426
0.000212322
0.000197696
0.000186811
0.000182467
0.000157527
0.000128313
0.000122717
0.000110606
9.75682e-05
9.38789e-05
8.03718e-05
7.77565e-05
7.29743e-05
7.18824e-05
6.49936e-05
6.25941e-05
5.55834e-05
5.26631e-05
4.66449e-05
4.37455e-05
3.95863e-05
3.75304e-05
3.45243e-05
0.97654
0.242142
0.0830453
0.0407029
0.0145625
0.00463206
0.0025237
0.00198522
0.00148771
0.00095511
0.000568078
0.000414602
0.000369902
0.000389762
0.000410578
0.0003924
0.000335985
0.000323679
0.000308554
0.000205838
0.000159376
0.000123011
9.32009e-05
8.39696e-05
7.01827e-05
6.31218e-05
6.00903e-05
5.8973e-05
5.45444e-05
5.33027e-05
4.83698e-05
4.65213e-05
4.19388e-05
3.89699e-05
3.61154e-05
3.39099e-05
3.15735e-05
0.953634
0.346307
0.128412
0.0685824
0.0350777
0.0197584
0.0123605
0.00697471
0.00450298
0.00232924
0.00153421
0.00108572
0.000869396
0.00106326
0.000945612
0.000790336
0.000706145
0.000582027
0.000553773
0.000558789
0.00042464
0.000277758
0.000159143
0.000100105
7.73387e-05
5.9846e-05
5.3513e-05
5.29907e-05
4.84273e-05
4.7408e-05
4.30981e-05
4.09507e-05
3.63422e-05
3.42674e-05
3.12407e-05
2.99528e-05
2.76849e-05
0.886884
0.330567
0.106013
0.0622063
0.0366158
0.0184155
0.0207642
0.0102562
0.00530043
0.0038445
0.00359374
0.00470275
0.00550864
0.00330836
0.0019323
0.0012003
0.000924953
0.000743784
0.000582967
0.000752186
0.000693858
0.000497606
0.000349096
0.0001964
9.37071e-05
4.40859e-05
3.36788e-05
3.31087e-05
3.14766e-05
3.16902e-05
2.98069e-05
2.95456e-05
2.60591e-05
2.51783e-05
2.32207e-05
2.2664e-05
2.13552e-05
0.497779
0.277575
0.134861
0.0803912
0.0533276
0.034162
0.0207587
0.0130617
0.00857239
0.00617675
0.00445302
0.00434813
0.0042812
0.00397522
0.0025578
0.00093473
0.000386367
0.000378019
0.000375237
0.000354013
0.000308655
0.000169053
0.000197657
0.000242993
0.000168119
4.42785e-05
2.68139e-05
2.63817e-05
2.56243e-05
2.40098e-05
2.32451e-05
2.19383e-05
2.05091e-05
1.98239e-05
1.84492e-05
1.78032e-05
1.69286e-05
0.772316
0.338699
0.138814
0.0596865
0.0199998
0.00920551
0.00700318
0.00499166
0.00476332
0.00472604
0.00441771
0.00454878
0.00453293
0.00460888
0.00453373
0.00479778
0.00521891
0.00570796
0.00627612
0.00659186
0.00659888
0.00632891
0.00572096
0.00552607
0.00524194
0.00453102
0.00387088
0.00347331
0.0032711
0.00321431
0.00308883
0.0028307
0.00262486
0.00234847
0.00210432
0.0019309
0.00144957
0.000936288
0.313042
0.188111
0.0548527
0.0303141
0.0149276
0.0108438
0.0102189
0.00759166
0.00716766
0.00759865
0.00668153
0.0068021
0.00625051
0.00626744
0.00595936
0.00624466
0.00700476
0.0076179
0.00831587
0.00884129
0.00912184
0.00895502
0.00879615
0.00849807
0.00787669
0.00714705
0.00650836
0.00596477
0.00565841
0.00539729
0.00505856
0.00473757
0.0041068
0.00324719
0.00263145
0.00209114
0.00159281
0.00133921
0.310474
0.125865
0.0410529
0.040164
0.0131625
0.00611687
0.00335367
0.0034309
0.0022345
0.00256662
0.00188424
0.00183579
0.00141811
0.00130484
0.00109298
0.00102643
0.00118351
0.00129012
0.00142516
0.00158259
0.00166872
0.00168499
0.00173335
0.00167519
0.00159555
0.00153791
0.00147081
0.001427
0.00146648
0.00148384
0.00152306
0.00155467
0.00153313
0.00146798
0.0013846
0.00121958
0.000965848
0.0988889
0.0488129
0.0167514
0.0113612
0.00735527
0.00323744
0.00215285
0.00155373
0.00141916
0.00114294
0.00115837
0.000748964
0.000609158
0.000515444
0.000354395
0.00030513
0.000290193
0.000276778
0.000256355
0.000253549
0.000232077
0.00021908
0.000215932
0.000207632
0.000204772
0.000209484
0.000217955
0.000229202
0.000257344
0.000280098
0.000308986
0.00033743
0.000352431
0.000358335
0.000345751
0.000314867
0.000265669
0.164424
0.0637798
0.0243244
0.00695682
0.00416979
0.00386545
0.00288159
0.00168292
0.00171247
0.00122031
0.000991669
0.000781517
0.000547295
0.000512108
0.000330114
0.000271162
0.000224783
0.000209274
0.000185362
0.000178525
0.000158331
0.000139668
0.000131974
0.000121345
0.000111029
0.000105586
9.85713e-05
9.61492e-05
9.26413e-05
9.14121e-05
9.33637e-05
9.46848e-05
9.87492e-05
0.00010243
0.000105308
0.000106461
0.000104116
0.000101385
0.177723
0.068486
0.0294743
0.00659241
0.00447641
0.0044359
0.00215756
0.00148068
0.00119099
0.0011001
0.000727833
0.000661254
0.000459807
0.000372728
0.000300003
0.000272788
0.000221235
0.00019769
0.000179592
0.000170291
0.000148232
0.000137383
0.000131093
0.000119004
0.000108299
0.000101498
9.33065e-05
8.99142e-05
8.27374e-05
7.78445e-05
7.43167e-05
6.91885e-05
6.65392e-05
6.30178e-05
6.17464e-05
5.99429e-05
5.87746e-05
5.79013e-05
0.185929
0.0793608
0.0439366
0.0175272
0.00676501
0.00660405
0.00217424
0.00118773
0.000905233
0.000756538
0.000749609
0.000451389
0.00041472
0.000285354
0.000275421
0.000219986
0.000211641
0.000191248
0.000171456
0.000162103
0.000146036
0.000134166
0.000123792
0.000120647
0.000105887
9.54968e-05
9.17274e-05
8.68804e-05
7.94314e-05
7.62403e-05
7.108e-05
6.62581e-05
6.20434e-05
5.6965e-05
5.34906e-05
4.96194e-05
4.68092e-05
0.234295
0.110194
0.0498486
0.0168398
0.00596432
0.00408954
0.00200252
0.00125589
0.00116737
0.000867098
0.000747293
0.000461838
0.000437398
0.000281923
0.000272362
0.000252972
0.000244488
0.000223824
0.000201209
0.000165289
0.000151292
0.000134054
0.000119404
0.000113667
9.91874e-05
9.19952e-05
8.86676e-05
8.57518e-05
7.87682e-05
7.62502e-05
6.98476e-05
6.59099e-05
6.05821e-05
5.55249e-05
5.16862e-05
4.8067e-05
4.4853e-05
0.317385
0.120389
0.053154
0.0288117
0.0121394
0.00402815
0.00214631
0.00119025
0.000809858
0.000625741
0.000540118
0.000497725
0.00048367
0.000516173
0.000532872
0.000499126
0.00045894
0.000418959
0.000403774
0.000296507
0.000241128
0.00018702
0.000129595
0.000107761
8.94015e-05
7.82011e-05
7.44081e-05
7.17647e-05
6.74869e-05
6.59877e-05
6.21013e-05
5.94365e-05
5.45388e-05
4.97959e-05
4.6302e-05
4.32502e-05
4.02694e-05
0.449256
0.198976
0.0792258
0.0493621
0.0290672
0.0170985
0.00870481
0.00391269
0.00209032
0.00130158
0.00110478
0.00120396
0.00134131
0.00140118
0.00122971
0.00097551
0.000868663
0.000748509
0.0006709
0.000620014
0.000524469
0.000445099
0.000283823
0.000169694
9.80192e-05
7.22769e-05
6.51956e-05
6.32099e-05
5.88778e-05
5.73932e-05
5.42052e-05
5.16588e-05
4.62811e-05
4.28134e-05
3.92106e-05
3.73482e-05
3.46288e-05
0.420886
0.200647
0.0870383
0.0544841
0.0341388
0.0264928
0.0305096
0.0178448
0.0120001
0.00983865
0.00890822
0.00937647
0.0079177
0.00513977
0.00279941
0.00156932
0.00105016
0.000900357
0.000708435
0.000691797
0.000637305
0.000626848
0.000537342
0.000399733
0.000245723
7.74371e-05
4.35034e-05
3.95433e-05
3.75929e-05
3.74346e-05
3.67087e-05
3.61652e-05
3.28691e-05
3.09385e-05
2.91484e-05
2.81426e-05
2.65445e-05
0.449347
0.271928
0.145402
0.0889334
0.0569635
0.0360584
0.0237922
0.0167465
0.0124807
0.00970826
0.00774218
0.00743085
0.00666676
0.00561433
0.00335462
0.00137689
0.000579735
0.000464089
0.000420663
0.000389422
0.000371752
0.000300832
0.000321735
0.000319663
0.000301223
0.000116295
2.98285e-05
2.91574e-05
2.81342e-05
2.67588e-05
2.54002e-05
2.42595e-05
2.26064e-05
2.18406e-05
2.04409e-05
1.96845e-05
1.87796e-05
0.458063
0.324057
0.136336
0.0713726
0.0150481
0.00573495
0.00549514
0.0052468
0.00523037
0.00533175
0.00520963
0.00540566
0.00551906
0.00571723
0.00574084
0.00592834
0.00621087
0.00667135
0.00717996
0.0074138
0.00738661
0.00706598
0.00649331
0.00623261
0.00576145
0.00489597
0.00421514
0.00385499
0.00365107
0.0035005
0.00334494
0.00311033
0.00278605
0.00244837
0.00223701
0.00195216
0.00123233
0.000794975
0.184675
0.130299
0.0366055
0.025751
0.0150329
0.0118888
0.00815827
0.00740873
0.00725213
0.00778698
0.00743818
0.00777383
0.00768048
0.0078922
0.00784279
0.00781786
0.00829369
0.0089775
0.00961567
0.0101566
0.0103883
0.0101582
0.00997339
0.00963558
0.00889226
0.00807658
0.00733789
0.006725
0.00639269
0.00598323
0.00555438
0.00518739
0.00431267
0.00329659
0.00255581
0.00190787
0.00137077
0.00112146
0.155389
0.0842538
0.0262219
0.0114823
0.00607319
0.00519347
0.00259795
0.00242372
0.00187558
0.0020829
0.00178173
0.00184184
0.00171132
0.00166279
0.00158346
0.00146342
0.00160164
0.00175787
0.0019178
0.00212266
0.00223078
0.00225931
0.00229057
0.00222411
0.00207664
0.0019404
0.00180006
0.00169066
0.00165852
0.00159888
0.00155943
0.00149797
0.00135325
0.00121384
0.0011006
0.000907165
0.000675488
0.0408219
0.0258478
0.0115062
0.00583483
0.00383653
0.00238204
0.00173361
0.00115955
0.00104819
0.000882688
0.00085259
0.000641677
0.000535292
0.000478115
0.000395747
0.000361999
0.000343809
0.000335031
0.000327475
0.00032844
0.000310719
0.000296695
0.000291159
0.000279876
0.000267132
0.000261109
0.000257143
0.000256175
0.000263694
0.000270158
0.000278318
0.000282662
0.000280232
0.000274278
0.000261424
0.000238
0.000206756
0.0256608
0.0210146
0.0154005
0.00541555
0.00351854
0.00357192
0.00265939
0.00122093
0.00120981
0.000973619
0.0008199
0.000683542
0.000470058
0.000474208
0.000313204
0.000287375
0.00024691
0.000228229
0.000209297
0.000203902
0.000177939
0.000161132
0.000151918
0.000142036
0.000130956
0.00012471
0.000117648
0.000114734
0.000108912
0.000105312
0.000102445
9.90144e-05
9.74608e-05
9.4352e-05
9.2944e-05
9.02568e-05
8.68904e-05
8.36142e-05
0.0259115
0.0201669
0.0137199
0.00471462
0.00364667
0.0036622
0.00176747
0.00124148
0.00095848
0.000946632
0.000660405
0.000623278
0.0004204
0.000395045
0.000298115
0.000277132
0.000241396
0.000217904
0.000201158
0.000192686
0.000169639
0.000155442
0.000149128
0.000136545
0.000124698
0.000117085
0.000109104
0.000105801
9.82846e-05
9.34474e-05
8.95347e-05
8.36305e-05
8.00939e-05
7.46176e-05
7.21321e-05
6.78553e-05
6.51741e-05
6.21574e-05
0.0315425
0.0250708
0.0228852
0.00886664
0.00557207
0.00461045
0.00151188
0.000983764
0.000735226
0.000631927
0.00059465
0.000420935
0.000383221
0.000302385
0.000282601
0.000247431
0.000238503
0.000213291
0.000198391
0.000189658
0.00016961
0.000154208
0.000142448
0.000136803
0.000121155
0.000109364
0.000104636
9.96966e-05
9.19984e-05
8.83642e-05
8.34032e-05
7.82213e-05
7.38212e-05
6.80124e-05
6.38561e-05
5.93551e-05
5.58034e-05
0.0575472
0.0327124
0.0239895
0.00928955
0.00515422
0.00279172
0.00139985
0.000970419
0.00086465
0.000687903
0.000628741
0.000464756
0.000395075
0.000328268
0.000302064
0.000290688
0.00028005
0.000248233
0.000226192
0.000198078
0.000176037
0.000154529
0.000138944
0.000132183
0.000116107
0.000105464
0.000101377
9.67927e-05
8.95955e-05
8.67144e-05
8.02512e-05
7.58583e-05
7.03338e-05
6.42089e-05
6.00684e-05
5.58042e-05
5.22461e-05
0.0894994
0.0435415
0.0322169
0.0191329
0.00730882
0.00368662
0.00223533
0.00112323
0.000850006
0.000666847
0.000596741
0.000554288
0.000550904
0.000577125
0.000590794
0.000532354
0.000509319
0.000449858
0.000421009
0.000323746
0.000272573
0.000207864
0.00014803
0.000123024
0.000105665
9.19296e-05
8.69312e-05
8.24939e-05
7.76537e-05
7.55872e-05
7.17358e-05
6.88472e-05
6.36732e-05
5.72524e-05
5.34644e-05
4.98514e-05
4.64556e-05
0.225646
0.0993277
0.0516479
0.0348664
0.0221993
0.0178239
0.00785636
0.00422243
0.00263371
0.00185529
0.00158486
0.00166909
0.00182952
0.00175632
0.00153628
0.00111801
0.000923196
0.000817746
0.000725141
0.000633049
0.000537464
0.000462022
0.000293499
0.000154843
0.000103091
8.39759e-05
7.84608e-05
7.32393e-05
6.84803e-05
6.56861e-05
6.20846e-05
5.93702e-05
5.37116e-05
4.81509e-05
4.48252e-05
4.2311e-05
3.9382e-05
0.277007
0.14439
0.0698228
0.0435802
0.033695
0.0384865
0.0346746
0.0244433
0.0188442
0.0153503
0.0132277
0.0125
0.0104778
0.00688669
0.00391555
0.00213686
0.00124977
0.000963815
0.000796833
0.000702458
0.000628955
0.000607519
0.000597511
0.000342526
0.000183838
7.38092e-05
5.16621e-05
4.51998e-05
4.33116e-05
4.24261e-05
4.1851e-05
4.13473e-05
3.742e-05
3.4385e-05
3.31139e-05
3.16259e-05
2.99142e-05
0.384435
0.258454
0.145711
0.089409
0.0565222
0.0356574
0.0254585
0.0198588
0.016102
0.0130366
0.0107597
0.010063
0.00887304
0.00716473
0.00439708
0.00193649
0.000803279
0.000531091
0.000450906
0.000415947
0.000402589
0.000373398
0.000354207
0.000331322
0.000280838
5.72174e-05
3.23465e-05
3.27833e-05
3.16385e-05
2.97107e-05
2.67993e-05
2.54807e-05
2.3627e-05
2.27912e-05
2.16177e-05
2.06921e-05
1.98301e-05
0.38692
0.27694
0.139555
0.0833652
0.0277553
0.00568701
0.00511773
0.00517546
0.00528337
0.00557366
0.00563643
0.00591825
0.00614665
0.00644512
0.00655439
0.00674721
0.00695516
0.00736586
0.00782033
0.00799814
0.00794393
0.00757381
0.00701995
0.00668551
0.00607492
0.00515459
0.00445002
0.00412578
0.00387616
0.00364882
0.00351633
0.00325259
0.00284446
0.00250359
0.00229139
0.00188085
0.00107137
0.00072652
0.125273
0.0856081
0.0345258
0.0231382
0.0151926
0.00930377
0.00657857
0.00657532
0.00682168
0.00742042
0.00756582
0.00810709
0.00840865
0.008811
0.00896417
0.00896968
0.00932143
0.00997503
0.0106009
0.0111439
0.0113206
0.0110257
0.0107927
0.0103895
0.00957712
0.00871297
0.00788538
0.00725859
0.00686908
0.00631625
0.00588704
0.00544639
0.00434589
0.00326382
0.00244055
0.00174297
0.00126999
0.00111109
0.125513
0.0727443
0.025462
0.00834909
0.00394909
0.00381114
0.00190775
0.00181028
0.00161755
0.00180348
0.00172369
0.0018881
0.00193725
0.001952
0.00196695
0.00189195
0.00198908
0.00218203
0.0023723
0.00260627
0.00274157
0.00277821
0.00280195
0.00272076
0.00253869
0.00233493
0.00213201
0.0019582
0.00185855
0.00172902
0.00162765
0.00148696
0.00126491
0.00107609
0.000944011
0.000759853
0.000577083
0.0339494
0.020348
0.0113188
0.00406507
0.00249468
0.00198114
0.00166796
0.000925707
0.000833002
0.000746977
0.000731762
0.00060921
0.000536704
0.000509885
0.000444961
0.000426685
0.00040598
0.000403905
0.000400651
0.000405202
0.000395116
0.000382762
0.000374417
0.000361679
0.000341842
0.000328717
0.000316618
0.000309625
0.000306893
0.00030244
0.000300779
0.000292046
0.000279645
0.000268013
0.000252853
0.000227054
0.000195328
0.0147311
0.0116061
0.0130651
0.00540051
0.00327379
0.00304945
0.00190583
0.00102371
0.000965948
0.000819733
0.000737158
0.000633663
0.000436917
0.000441997
0.000316735
0.000309375
0.000266443
0.000247344
0.000229062
0.000220243
0.000196326
0.000177743
0.000168175
0.000156815
0.000146077
0.000139119
0.000132732
0.000129871
0.000124303
0.000120783
0.000117202
0.000112096
0.000108252
0.000102303
9.74067e-05
9.09288e-05
8.49694e-05
7.99795e-05
0.0110877
0.010649
0.00938388
0.00420283
0.00292162
0.00259558
0.00136592
0.0010153
0.000758413
0.000764508
0.000555342
0.000553049
0.000398507
0.000373471
0.000306379
0.000280331
0.000263464
0.000234262
0.000219998
0.000210496
0.000187317
0.000170539
0.000162686
0.000150015
0.000136984
0.000127742
0.000119742
0.00011571
0.000108279
0.000103495
9.90703e-05
9.31492e-05
8.92018e-05
8.30583e-05
7.97692e-05
7.46811e-05
7.10728e-05
6.72819e-05
0.0114542
0.012261
0.0128671
0.00678484
0.00485847
0.00249196
0.00134722
0.000923592
0.000659991
0.000544973
0.000510915
0.000411343
0.00038594
0.000323371
0.000301156
0.0002708
0.000260209
0.000231082
0.000219676
0.000210195
0.000188952
0.000171097
0.000158301
0.000150023
0.000133521
0.000120569
0.00011486
0.000109041
0.000101277
9.70519e-05
9.18139e-05
8.66001e-05
8.19869e-05
7.57867e-05
7.12179e-05
6.6395e-05
6.2458e-05
0.0191892
0.0144129
0.0128007
0.00639095
0.00421643
0.00219619
0.00117041
0.000871611
0.000762444
0.000650291
0.000605291
0.000452417
0.000387084
0.000354854
0.000318415
0.000305644
0.000292034
0.000256929
0.000236744
0.000215683
0.000193877
0.000171502
0.000155896
0.000147893
0.000130283
0.00011704
0.000111602
0.000105753
9.81397e-05
9.45212e-05
8.79059e-05
8.29834e-05
7.73705e-05
7.04491e-05
6.6005e-05
6.14945e-05
5.76701e-05
0.0348258
0.0231735
0.0215743
0.0121065
0.00592565
0.00367243
0.00191239
0.0010847
0.000853909
0.000713
0.000644628
0.000603172
0.000611608
0.000606953
0.000609742
0.000527461
0.000495029
0.00043326
0.000389648
0.000307925
0.000264437
0.000206027
0.00015817
0.000138109
0.00012058
0.000104329
9.78422e-05
9.197e-05
8.60223e-05
8.30358e-05
7.87887e-05
7.58367e-05
7.07476e-05
6.2575e-05
5.84938e-05
5.46821e-05
5.09517e-05
0.112216
0.0562256
0.038015
0.0269011
0.0215909
0.0188338
0.00789729
0.00449163
0.00313921
0.00240202
0.00212896
0.00217149
0.0024042
0.00220491
0.00187849
0.00126723
0.00094305
0.000815346
0.000722693
0.000623777
0.000512979
0.000416935
0.000246054
0.000145214
0.000116493
9.85805e-05
9.2757e-05
8.45905e-05
7.81071e-05
7.31521e-05
6.81953e-05
6.52942e-05
5.97169e-05
5.19511e-05
4.85388e-05
4.58883e-05
4.26801e-05
0.242932
0.108763
0.0570082
0.0405235
0.0368936
0.0477729
0.0363692
0.0284593
0.0233918
0.0191447
0.0162499
0.0146536
0.0128528
0.00862926
0.00512332
0.00293045
0.0015619
0.00101037
0.000829678
0.000741024
0.00065171
0.00062537
0.000551199
0.000257907
0.000135626
7.73365e-05
6.66802e-05
5.28559e-05
5.00713e-05
4.78212e-05
4.64216e-05
4.61208e-05
4.10599e-05
3.66828e-05
3.52394e-05
3.40295e-05
3.20765e-05
0.334147
0.235381
0.144281
0.0866562
0.0527169
0.034431
0.0266348
0.022409
0.0191492
0.0158425
0.0132337
0.0121419
0.0107925
0.00863188
0.00546772
0.00257343
0.00109134
0.000625285
0.000479524
0.000435749
0.000406975
0.000357763
0.000341171
0.000299766
0.000200305
4.3967e-05
3.94876e-05
4.36193e-05
4.41767e-05
3.97396e-05
3.06803e-05
2.67672e-05
2.41889e-05
2.30773e-05
2.23006e-05
2.11661e-05
2.04186e-05
0.274713
0.253884
0.138234
0.0853304
0.0272601
0.00540006
0.00446883
0.0048664
0.00519736
0.00558356
0.00579434
0.00615909
0.00648898
0.00685482
0.00707742
0.0072995
0.00749653
0.00788222
0.0082874
0.00842231
0.00834513
0.00793296
0.00738581
0.00696139
0.00628046
0.00533344
0.00462304
0.00431889
0.0040007
0.00373766
0.0036088
0.00332899
0.00287017
0.0025393
0.00231234
0.00180646
0.00095939
0.000659846
0.088493
0.0518327
0.0319
0.028616
0.0116555
0.00748633
0.00526792
0.00587042
0.00624508
0.00699642
0.00745175
0.00808677
0.00869271
0.00923188
0.00964263
0.00979352
0.0101369
0.010751
0.0113632
0.0119077
0.0120302
0.0116687
0.011365
0.0108787
0.0100315
0.00913166
0.00824523
0.00763809
0.00716071
0.00650742
0.00612175
0.00559129
0.00433108
0.00323011
0.00235276
0.00161896
0.00121044
0.00110964
0.0622096
0.032286
0.0123047
0.00513662
0.00281361
0.00210079
0.00157817
0.00151812
0.00146099
0.00166931
0.0017003
0.00191505
0.00208076
0.00217751
0.00227655
0.00226276
0.00236357
0.00257995
0.00279493
0.00305405
0.00320451
0.00324666
0.00325659
0.00316199
0.0029577
0.00270359
0.00244737
0.00222952
0.00206738
0.00188866
0.00174238
0.00153363
0.0012577
0.00104075
0.000884706
0.000712413
0.000559766
0.0284376
0.0120863
0.00774131
0.00339079
0.00177457
0.00152542
0.0013183
0.000807098
0.000720663
0.000661072
0.000645235
0.000599414
0.000558672
0.000539574
0.000506155
0.00049241
0.000478357
0.000479185
0.000483814
0.000491327
0.000487508
0.000477004
0.000466734
0.000450624
0.000425921
0.000405288
0.000388757
0.000375925
0.000369342
0.000362111
0.000357327
0.000343804
0.000325554
0.000308962
0.000289302
0.000256473
0.000218446
0.012648
0.0089892
0.0101058
0.00442555
0.00244577
0.00218559
0.00128643
0.000856559
0.000783475
0.000646575
0.000603331
0.000533099
0.000421178
0.00041215
0.000331195
0.000320857
0.000287735
0.000263509
0.000247147
0.000233692
0.000210888
0.000192257
0.000181017
0.000169122
0.000158147
0.000151033
0.000145424
0.000142681
0.000138649
0.000136387
0.000133668
0.000129496
0.000124754
0.000118003
0.000110569
0.000101455
9.27505e-05
8.54752e-05
0.00915351
0.00763151
0.00675158
0.00351489
0.0027361
0.0017591
0.00105272
0.000819806
0.000652307
0.000610437
0.000498653
0.000490647
0.000388671
0.000366879
0.000316486
0.000293354
0.000277817
0.000248994
0.00023545
0.000222196
0.000201308
0.000182402
0.000173345
0.000159697
0.000145947
0.00013517
0.000127085
0.000121781
0.000114445
0.000109394
0.000104521
9.89245e-05
9.46955e-05
8.87977e-05
8.50051e-05
7.98094e-05
7.56896e-05
7.15967e-05
0.00850137
0.00855288
0.00802029
0.00499081
0.00430792
0.00231034
0.0014116
0.000904245
0.000639699
0.000513386
0.000473378
0.000401925
0.000377756
0.000338946
0.000310305
0.000288627
0.000275467
0.000247383
0.000236947
0.000224538
0.000203701
0.000184333
0.000171322
0.000160551
0.000143369
0.000129385
0.000122628
0.000115537
0.000107901
0.000102873
9.71962e-05
9.19195e-05
8.71959e-05
8.08422e-05
7.6087e-05
7.12301e-05
6.71825e-05
0.0114839
0.00958481
0.0083714
0.00505115
0.00348619
0.00205385
0.00111781
0.000855199
0.000707932
0.000572462
0.000522549
0.00043838
0.000386313
0.000361637
0.000325899
0.000311181
0.000294273
0.000260857
0.000244087
0.000225621
0.000206761
0.000184948
0.000170359
0.00016101
0.000141631
0.000126458
0.000119636
0.00011232
0.000104926
0.000100286
9.33516e-05
8.77948e-05
8.21634e-05
7.46406e-05
6.99222e-05
6.54452e-05
6.14769e-05
0.0226518
0.0168061
0.0142263
0.00934861
0.00638751
0.00354125
0.00179354
0.00111285
0.000902326
0.000763622
0.000713373
0.0006926
0.000703691
0.000644248
0.000619215
0.000502576
0.000443894
0.000387273
0.000338482
0.000279764
0.000249732
0.000201788
0.0001685
0.000153142
0.000134008
0.000115216
0.000106925
0.00010015
9.36078e-05
8.9093e-05
8.40834e-05
8.08509e-05
7.62811e-05
6.64146e-05
6.17231e-05
5.809e-05
5.40976e-05
0.0582858
0.0371749
0.0285409
0.0265551
0.0264202
0.0203926
0.00814178
0.00469266
0.00357854
0.00296214
0.00273894
0.00278178
0.00308118
0.00278306
0.00226201