/*--------------------------------*- C++ -*----------------------------------*\
| =========                 |                                                 |
| \\      /  F ield         | OpenFOAM: The Open Source CFD Toolbox           |
|  \\    /   O peration     | Version:  2.3.1                                 |
|   \\  /    A nd           | Web:      www.OpenFOAM.org                      |
|    \\/     M anipulation  |                                                 |
\*---------------------------------------------------------------------------*/
FoamFile
{
    version     2.0;
    format      ascii;
    class       volScalarField;
    location    "10";
    object      nut;
}
// * * * * * * * * * * * * * * * * * * * * * * * * * * * * * * * * * * * * * //

dimensions      [0 2 -1 0 0 0 0];

internalField   nonuniform List<scalar> 
37632
(
0.00168562
0.00082838
0.000443447
0.000325068
0.000224876
0.000214865
0.000205781
0.000137756
7.24599e-05
6.24885e-05
5.87552e-05
5.77068e-05
5.53365e-05
5.50556e-05
5.37611e-05
5.58155e-05
5.80674e-05
6.0306e-05
6.288e-05
6.49886e-05
6.60819e-05
6.60601e-05
6.4516e-05
6.18571e-05
6.1213e-05
6.01811e-05
5.72582e-05
5.37947e-05
5.07227e-05
4.92909e-05
4.90296e-05
4.8179e-05
4.62795e-05
4.59075e-05
4.49323e-05
4.27534e-05
4.25533e-05
4.18201e-05
0.00103846
0.000569823
0.000376202
0.000212407
0.000128694
9.818e-05
9.26184e-05
7.55151e-05
6.57302e-05
6.7455e-05
5.92506e-05
5.65814e-05
5.02441e-05
4.79763e-05
4.5784e-05
5.10588e-05
5.51245e-05
5.71506e-05
5.98237e-05
6.03616e-05
6.12544e-05
6.16043e-05
6.06782e-05
5.85615e-05
5.59503e-05
5.39127e-05
5.14679e-05
5.03396e-05
4.99848e-05
4.99235e-05
4.99433e-05
5.01876e-05
4.89785e-05
4.53251e-05
4.44415e-05
4.51431e-05
4.5174e-05
4.43663e-05
0.00101631
0.000564502
0.000258368
0.00020783
0.000112365
7.93111e-05
6.80688e-05
6.21954e-05
5.81497e-05
5.75714e-05
5.1701e-05
5.06166e-05
4.45254e-05
4.39138e-05
3.24595e-05
2.33629e-05
2.07967e-05
2.02475e-05
2.14899e-05
2.1568e-05
2.26155e-05
2.34549e-05
2.29627e-05
2.325e-05
2.3753e-05
2.52832e-05
2.47861e-05
2.60608e-05
2.79695e-05
2.95105e-05
3.21388e-05
3.46024e-05
3.66342e-05
3.82031e-05
3.96476e-05
4.03448e-05
4.00667e-05
0.000983595
0.000572984
0.000320805
0.000166962
0.000128699
0.000119106
8.45109e-05
5.05024e-05
4.62849e-05
4.03109e-05
3.72911e-05
3.12771e-05
2.84126e-05
2.46447e-05
2.14634e-05
1.78824e-05
1.68079e-05
1.5015e-05
1.45782e-05
1.38105e-05
1.34725e-05
1.32736e-05
1.3198e-05
1.32399e-05
1.39646e-05
1.47233e-05
1.47938e-05
1.62841e-05
1.78737e-05
1.87252e-05
2.1034e-05
2.24906e-05
2.43937e-05
2.58386e-05
2.67191e-05
2.6317e-05
2.41287e-05
0.000989536
0.000611416
0.000387751
0.000159369
0.000106711
0.000115148
8.18145e-05
5.99042e-05
5.71671e-05
4.26809e-05
4.56375e-05
2.89399e-05
3.00031e-05
2.14609e-05
2.23914e-05
1.60131e-05
1.54201e-05
1.49671e-05
1.35741e-05
1.3165e-05
1.26623e-05
1.18894e-05
1.1613e-05
1.13325e-05
1.11969e-05
1.11662e-05
1.12315e-05
1.15981e-05
1.23491e-05
1.27708e-05
1.38314e-05
1.42729e-05
1.50256e-05
1.51302e-05
1.48036e-05
1.38153e-05
1.21978e-05
1.03887e-05
0.00099462
0.000689681
0.000405659
0.000147231
9.95783e-05
9.22892e-05
5.21733e-05
5.57246e-05
4.88381e-05
3.76088e-05
3.60207e-05
2.62471e-05
2.87147e-05
1.8609e-05
1.93372e-05
1.57668e-05
1.50838e-05
1.42756e-05
1.3891e-05
1.2949e-05
1.27009e-05
1.17208e-05
1.13906e-05
1.09239e-05
1.04242e-05
1.00715e-05
9.76026e-06
9.43436e-06
9.2481e-06
8.99732e-06
8.8944e-06
8.7783e-06
8.83483e-06
8.48413e-06
8.44506e-06
8.01653e-06
7.72019e-06
7.52387e-06
0.000981933
0.00067246
0.000376255
0.000171652
0.00010927
6.79706e-05
5.20262e-05
4.1577e-05
3.93339e-05
3.07297e-05
2.79119e-05
2.09843e-05
2.08214e-05
1.70979e-05
1.68826e-05
1.58388e-05
1.46355e-05
1.4076e-05
1.31947e-05
1.25732e-05
1.24578e-05
1.16481e-05
1.1196e-05
1.08702e-05
1.03522e-05
1.01223e-05
9.5587e-06
9.32809e-06
8.82624e-06
8.57585e-06
8.13385e-06
7.88983e-06
7.48219e-06
7.2871e-06
6.94769e-06
6.79292e-06
6.58486e-06
0.000981328
0.000659124
0.000376642
0.000205521
0.000120151
7.34387e-05
7.62817e-05
5.13861e-05
5.4745e-05
5.09683e-05
3.98273e-05
2.03898e-05
1.69251e-05
1.67656e-05
1.69124e-05
1.55003e-05
1.48929e-05
1.47098e-05
1.31796e-05
1.24054e-05
1.21033e-05
1.12198e-05
1.08204e-05
1.02322e-05
1.03299e-05
9.79975e-06
9.59233e-06
9.18112e-06
9.01506e-06
8.47147e-06
8.30003e-06
7.76841e-06
7.57089e-06
7.12779e-06
6.9396e-06
6.59765e-06
6.3845e-06
0.000937392
0.000549265
0.000330553
0.00020806
0.000121268
7.05187e-05
5.94047e-05
4.96198e-05
4.70099e-05
3.70205e-05
2.74079e-05
2.0539e-05
2.01226e-05
2.03356e-05
2.10194e-05
1.95539e-05
1.75744e-05
1.62167e-05
1.5481e-05
1.33563e-05
1.20333e-05
1.13636e-05
1.04551e-05
9.83959e-06
9.70256e-06
9.33841e-06
8.9538e-06
8.81848e-06
8.56657e-06
8.14727e-06
7.98044e-06
7.52236e-06
7.23686e-06
6.99357e-06
6.64535e-06
6.45441e-06
6.18131e-06
0.000902371
0.000584751
0.000390949
0.000279833
0.00018761
0.000147889
0.000120588
9.90611e-05
7.66288e-05
5.98501e-05
4.48677e-05
2.79394e-05
2.4213e-05
2.64672e-05
2.65152e-05
2.58369e-05
2.38422e-05
2.03588e-05
1.90412e-05
1.78999e-05
1.47406e-05
1.31642e-05
1.09779e-05
9.65229e-06
9.08127e-06
8.86287e-06
8.53075e-06
8.55364e-06
8.1886e-06
7.84687e-06
7.67372e-06
7.19785e-06
7.00924e-06
6.7177e-06
6.42409e-06
6.25897e-06
6.00064e-06
0.000859257
0.000575361
0.000375602
0.000272895
0.000199559
0.000141927
0.000106848
8.31652e-05
6.62712e-05
5.23387e-05
4.32413e-05
4.03363e-05
4.52632e-05
4.09807e-05
3.4683e-05
2.86788e-05
2.72246e-05
2.24034e-05
2.033e-05
2.04281e-05
1.74431e-05
1.46459e-05
1.40836e-05
9.82331e-06
8.00921e-06
7.47148e-06
7.64666e-06
7.64461e-06
7.4595e-06
7.13914e-06
7.09049e-06
6.61561e-06
6.54783e-06
6.17277e-06
6.07189e-06
5.78264e-06
5.65115e-06
0.000763407
0.000592143
0.00042202
0.000321642
0.000264427
0.000216533
0.000166936
0.000127632
0.000100446
8.2505e-05
6.56887e-05
6.56394e-05
6.94663e-05
6.93276e-05
5.52393e-05
2.96891e-05
1.78824e-05
1.8208e-05
2.03322e-05
1.90143e-05
1.81565e-05
1.36295e-05
1.23185e-05
1.18507e-05
8.37049e-06
6.51299e-06
6.33543e-06
6.22621e-06
6.04361e-06
5.85974e-06
5.74662e-06
5.4651e-06
5.37478e-06
5.12616e-06
5.03484e-06
4.83709e-06
4.75047e-06
0.00244706
0.00160565
0.000814213
0.000569966
0.000468813
0.000403486
0.000328789
0.000200216
0.000154216
0.00015128
0.000142406
0.000142522
0.000140104
0.000138827
0.000135293
0.00014414
0.000155349
0.000164347
0.000175111
0.000183082
0.000184436
0.000180379
0.000168577
0.000166658
0.000165327
0.000157769
0.000144724
0.000135258
0.000129269
0.000129398
0.000128577
0.000122168
0.000118433
0.000115883
0.000108371
0.000104618
9.91158e-05
8.91218e-05
0.00253584
0.00141885
0.000731069
0.000483503
0.000334149
0.000241433
0.000273697
0.000312836
0.000264184
0.000279717
0.000245817
0.000221721
0.000207818
0.000178752
0.000164852
0.000186902
0.000237523
0.000254347
0.000279114
0.000302226
0.00031185
0.000318854
0.000320742
0.000319485
0.000311664
0.000299208
0.000285134
0.000274689
0.000269205
0.000265409
0.000261417
0.000254636
0.000232749
0.000198227
0.000170488
0.000146281
0.000133548
0.000114446
0.00175129
0.00115123
0.000534648
0.000649585
0.000318806
0.000224533
0.000201731
0.000197143
0.000175057
0.000171253
0.000150347
0.000142228
0.000115687
9.9977e-05
7.51111e-05
5.98671e-05
5.6861e-05
6.1387e-05
6.33733e-05
7.28192e-05
7.61804e-05
8.2539e-05
8.66899e-05
9.00025e-05
9.43934e-05
0.000101112
0.00010179
0.000105863
0.000114846
0.000121098
0.000129779
0.000134296
0.00013592
0.000133779
0.000128767
0.000117908
9.18632e-05
0.00155436
0.000453351
0.000274565
0.000246713
0.00029573
0.000180409
0.000103969
0.000147461
0.000125445
0.000127444
0.000115659
0.000116025
0.000123853
9.1275e-05
8.66317e-05
6.36146e-05
6.56224e-05
5.32959e-05
4.41223e-05
4.02487e-05
3.39837e-05
3.16787e-05
3.06981e-05
2.97798e-05
2.90844e-05
3.18094e-05
3.11563e-05
3.4399e-05
3.95702e-05
4.20414e-05
4.88225e-05
5.2049e-05
5.31607e-05
5.188e-05
4.63891e-05
3.98186e-05
3.13891e-05
0.0021888
0.000939854
0.000283721
0.00021773
0.000241454
0.000166008
0.000108579
0.000183044
0.000193043
0.000131552
0.000143851
9.32452e-05
0.000134126
7.36565e-05
0.000119536
6.4291e-05
0.000100957
8.8011e-05
7.46958e-05
6.77468e-05
6.62191e-05
5.79036e-05
5.37403e-05
4.71645e-05
4.00069e-05
3.33111e-05
2.87507e-05
2.4372e-05
2.12114e-05
1.83657e-05
1.98435e-05
1.86203e-05
1.99266e-05
2.00996e-05
2.07293e-05
2.1313e-05
2.40937e-05
2.79624e-05
0.00237818
0.00103263
0.000325713
0.000222118
0.000136934
8.58744e-05
8.64753e-05
0.00016324
0.000178582
0.000123151
0.00022781
0.000152651
0.000156475
0.000117053
0.000113181
9.68226e-05
8.44322e-05
8.6668e-05
8.59534e-05
8.14838e-05
7.9373e-05
8.4517e-05
7.00418e-05
6.86933e-05
6.16802e-05
5.494e-05
5.02382e-05
4.6201e-05
3.85836e-05
3.43249e-05
2.88837e-05
2.57773e-05
2.23926e-05
2.15414e-05
2.00017e-05
2.04996e-05
2.07743e-05
2.12746e-05
0.00228751
0.00100634
0.000468246
0.000343166
0.000119188
9.99905e-05
0.00016597
0.000146969
0.000137353
0.000148042
0.000153865
9.06592e-05
5.65521e-05
6.11719e-05
5.04209e-05
7.8932e-05
5.53032e-05
6.74122e-05
6.37752e-05
6.51499e-05
6.81809e-05
7.62259e-05
7.18315e-05
7.20506e-05
6.82516e-05
6.49687e-05
6.47462e-05
5.86789e-05
5.6071e-05
5.40067e-05
4.87154e-05
4.61653e-05
4.22832e-05
3.80868e-05
3.57286e-05
3.1458e-05
2.93742e-05
0.00239226
0.00119836
0.000634082
0.00038912
0.000179037
0.000163975
0.000174534
0.000126694
0.000132793
0.000114742
6.08933e-05
4.95164e-05
7.9912e-05
4.71324e-05
4.68104e-05
4.3271e-05
4.24408e-05
4.57639e-05
4.22984e-05
4.24242e-05
4.91433e-05
6.1756e-05
6.13391e-05
6.26747e-05
6.40714e-05
6.59233e-05
6.34411e-05
6.34691e-05
6.19628e-05
6.06952e-05
5.73015e-05
5.55906e-05
5.10689e-05
4.90942e-05
4.4887e-05
4.3654e-05
4.05683e-05
0.00238211
0.00107404
0.000645527
0.000474103
0.000224655
0.000115971
0.000107236
0.00011299
7.60251e-05
5.76197e-05
4.48796e-05
6.8023e-05
6.40334e-05
5.9932e-05
6.32344e-05
6.07367e-05
5.37741e-05
5.51306e-05
5.21022e-05
3.92342e-05
3.31067e-05
3.84719e-05
3.7772e-05
4.19003e-05
5.37031e-05
5.20185e-05
5.22001e-05
5.30169e-05
5.34074e-05
5.36395e-05
5.19334e-05
5.2123e-05
4.79347e-05
4.56261e-05
4.39165e-05
4.16079e-05
4.00272e-05
0.00243896
0.00131263
0.000759416
0.000609955
0.000441126
0.000294875
0.000256145
0.000256537
0.000176689
0.000110529
7.07622e-05
8.29238e-05
9.23885e-05
0.000123794
0.000121163
0.000106245
9.41783e-05
7.83676e-05
7.48e-05
7.70487e-05
6.10098e-05
4.7219e-05
3.44856e-05
3.3094e-05
4.3267e-05
4.60027e-05
4.46605e-05
4.70572e-05
4.70579e-05
4.86035e-05
4.44357e-05
4.62471e-05
4.15553e-05
4.01846e-05
3.78324e-05
3.68149e-05
3.50878e-05
0.00228151
0.00123684
0.000630686
0.000550813
0.000389338
0.000278321
0.000598419
0.000350548
0.000189008
0.00016027
0.00015889
0.0002257
0.000301676
0.000208593
0.000156438
0.000134833
0.000118395
0.000100849
7.50216e-05
8.75166e-05
8.10527e-05
6.21724e-05
5.58712e-05
3.51515e-05
2.31125e-05
2.22816e-05
1.98369e-05
2.32725e-05
2.5082e-05
2.61126e-05
2.6586e-05
2.73345e-05
2.57469e-05
2.58652e-05
2.47244e-05
2.48105e-05
2.40904e-05
0.00177897
0.00133057
0.000921976
0.000711285
0.000584853
0.000474365
0.000369895
0.000290697
0.000233513
0.000197664
0.000167228
0.000165329
0.000164395
0.000158869
0.00012946
7.84302e-05
4.9883e-05
4.91293e-05
4.89117e-05
4.75083e-05
4.43683e-05
3.28334e-05
3.55309e-05
3.93749e-05
3.27895e-05
1.6838e-05
1.30832e-05
1.29777e-05
1.27891e-05
1.23801e-05
1.21819e-05
1.18335e-05
1.14421e-05
1.12492e-05
1.08519e-05
1.06606e-05
1.0395e-05
0.00220987
0.0014846
0.000939146
0.000617559
0.000361261
0.000243339
0.000216856
0.00017848
0.000173088
0.000172532
0.0001668
0.000169276
0.000168972
0.000170377
0.000168949
0.00017386
0.000181409
0.000189718
0.000198981
0.000204122
0.000204354
0.000200446
0.000190615
0.000187304
0.000182608
0.000170142
0.000157213
0.000148798
0.000144273
0.000143032
0.000140336
0.00013438
0.000129406
0.000122464
0.000115865
0.000111061
9.65979e-05
7.74989e-05
0.00167468
0.00125167
0.000597923
0.000463833
0.000388085
0.000350807
0.000420461
0.000361706
0.000346808
0.000356738
0.00032729
0.000321796
0.000302361
0.000294516
0.000284512
0.000295397
0.000333251
0.000356394
0.000383054
0.000405185
0.000416629
0.000419105
0.000421308
0.000418455
0.000405906
0.000388468
0.000370756
0.000355823
0.000348927
0.000342528
0.000333156
0.000319331
0.000284753
0.000234077
0.000189978
0.000153321
0.000131397
0.000107925
0.00133424
0.000916999
0.000483107
0.00045744
0.000417485
0.000275042
0.000216024
0.000208309
0.00016684
0.000171403
0.000144677
0.000133424
0.000107256
9.7221e-05
8.26828e-05
7.7261e-05
8.78093e-05
9.40326e-05
0.000102489
0.000114428
0.00012101
0.000126338
0.000132741
0.000134279
0.000134547
0.000135899
0.000135436
0.00013581
0.000143811
0.000148859
0.000155664
0.000160416
0.000159174
0.000150279
0.000138809
0.000120413
9.00308e-05
0.000371523
0.000447885
0.00031493
0.000269755
0.000222151
0.000143393
0.000112306
0.000158262
0.000146608
0.000146311
0.000141819
0.000123729
0.000111173
0.000102123
7.86225e-05
6.82406e-05
6.24451e-05
5.75545e-05
5.17513e-05
4.98405e-05
4.44397e-05
4.15491e-05
4.04175e-05
4.00769e-05
3.97527e-05
4.07282e-05
4.12778e-05
4.31384e-05
4.70449e-05
4.89291e-05
5.26421e-05
5.44079e-05
5.49311e-05
5.44827e-05
5.16498e-05
4.79417e-05
4.55628e-05
0.000552195
0.000397878
0.000317596
0.00023545
0.000219964
0.000173451
0.000131883
0.000175439
0.000171608
0.000166046
0.000144513
0.000135325
0.00015922
0.000146141
0.000142066
0.000131547
0.000133115
0.000132242
0.000127028
0.000125712
0.000119491
0.000107852
0.000101136
9.02792e-05
7.7182e-05
6.82837e-05
5.88912e-05
5.16573e-05
4.38778e-05
3.79097e-05
3.53099e-05
3.10303e-05
3.06418e-05
2.98636e-05
3.0662e-05
3.15924e-05
3.35751e-05
3.56288e-05
0.000588008
0.000434624
0.000367886
0.000190443
0.000192829
0.000156501
0.000164731
0.000191125
0.000198855
0.000191582
0.000217873
0.000198978
0.000169339
0.000166621
0.000148779
0.000150678
0.000140383
0.00014212
0.000143277
0.000145094
0.000146644
0.000149501
0.000147865
0.000136461
0.000125438
0.000116441
0.000103967
9.7395e-05
8.55405e-05
7.6499e-05
6.91774e-05
6.02142e-05
5.48812e-05
4.9198e-05
4.58725e-05
4.25985e-05
4.0603e-05
3.89013e-05
0.00066691
0.000518579
0.000543018
0.000285861
0.000180278
0.000247858
0.000190499
0.000187961
0.000177542
0.000191381
0.000195397
0.000151636
0.000128965
0.000107522
9.74045e-05
9.3265e-05
8.8953e-05
9.82068e-05
0.000101779
0.000110966
0.00011976
0.000143898
0.00014522
0.000149658
0.000144678
0.000133842
0.000130556
0.000124865
0.000116506
0.000111689
0.000104044
9.7344e-05
8.95512e-05
8.22011e-05
7.60863e-05
6.95852e-05
6.47113e-05
0.000905178
0.000659327
0.000555176
0.00031542
0.000189036
0.000172921
0.000144009
0.00012014
0.000126972
8.92082e-05
6.00684e-05
0.000106043
0.000114893
7.18315e-05
6.78019e-05
6.15917e-05
5.96665e-05
5.99181e-05
5.62858e-05
5.61573e-05
6.05266e-05
8.93124e-05
0.000112031
0.000131185
0.000138198
0.000138208
0.000137244
0.000135637
0.000130986
0.000128182
0.000122551
0.000116477
0.000109625
0.000102463
9.64246e-05
9.10503e-05
8.58121e-05
0.00125102
0.000725861
0.000601722
0.000453106
0.000233117
0.000129428
0.000141627
0.000126599
9.78608e-05
8.46871e-05
7.84167e-05
9.73126e-05
9.01598e-05
9.09079e-05
9.32626e-05
9.13273e-05
8.25528e-05
7.55686e-05
7.168e-05
5.62811e-05
4.78528e-05
4.64488e-05
4.98555e-05
6.59963e-05
0.000102528
0.000111122
0.000113261
0.000114724
0.000115124
0.0001154
0.000113957
0.000112272
0.000105793
9.95798e-05
9.49943e-05
8.99727e-05
8.57917e-05
0.00175814
0.00108393
0.000702632
0.000652211
0.000504027
0.000355918
0.000266086
0.000190771
0.000128457
9.59782e-05
8.94474e-05
0.000105747
0.000139578
0.000162705
0.000161056
0.000142771
0.000132134
0.000113706
0.000101448
9.31514e-05
7.91335e-05
6.59188e-05
4.8426e-05
3.37258e-05
4.35332e-05
8.01044e-05
8.95622e-05
9.35719e-05
9.33565e-05
9.42652e-05
9.27377e-05
9.27272e-05
8.69886e-05
8.3093e-05
7.87105e-05
7.63759e-05
7.28463e-05
0.00167432
0.00106717
0.00078006
0.000686489
0.000420816
0.000543493
0.000805247
0.000600118
0.000447695
0.000391787
0.00037117
0.00038299
0.00038668
0.000287473
0.000197889
0.000160516
0.00014096
0.000128646
0.000103832
9.85969e-05
8.89814e-05
7.9555e-05
7.32234e-05
5.50615e-05
4.21294e-05
3.2217e-05
3.87032e-05
4.24655e-05
4.32332e-05
4.4279e-05
4.65705e-05
4.70439e-05
4.68589e-05
4.61553e-05
4.55682e-05
4.54199e-05
4.42699e-05
0.00168939
0.00131387
0.00095854
0.000755159
0.000612478
0.000489558
0.000394438
0.000327463
0.000280791
0.000247314
0.000220641
0.000216633
0.000205641
0.00018949
0.000148091
9.51493e-05
6.12332e-05
5.44503e-05
5.17903e-05
4.9825e-05
4.8677e-05
4.37726e-05
4.52876e-05
4.51327e-05
4.38208e-05
2.73064e-05
1.38009e-05
1.36426e-05
1.34013e-05
1.30698e-05
1.27338e-05
1.24442e-05
1.20129e-05
1.18077e-05
1.14227e-05
1.12098e-05
1.09488e-05
0.00170828
0.00144611
0.000931784
0.000678412
0.000316227
0.000191113
0.000187307
0.000181844
0.0001816
0.000183315
0.000181195
0.000184586
0.00018649
0.000189809
0.000190184
0.000193295
0.000197907
0.000205124
0.000212877
0.000216502
0.000216212
0.000211789
0.000203047
0.000198977
0.000191584
0.000176836
0.00016401
0.000156709
0.000152458
0.000149313
0.000146021
0.00014087
0.000133377
0.000125028
0.000119462
0.000111808
8.9206e-05
7.13581e-05
0.00143077
0.00120089
0.000517952
0.000443006
0.000439784
0.000405866
0.000400878
0.000388861
0.000376867
0.000387034
0.000370566
0.000373109
0.000367066
0.000368406
0.000368561
0.000372451
0.000399582
0.0004249
0.000449246
0.000470348
0.000480992
0.000480003
0.000479581
0.000475675
0.000459954
0.000439498
0.000418475
0.000400409
0.000391595
0.0003798
0.000364613
0.000345212
0.000299006
0.000238556
0.000185456
0.000149082
0.000131686
0.000113752
0.0013899
0.00117651
0.000514147
0.000275242
0.000291992
0.00027375
0.000212833
0.000186553
0.000159646
0.000158712
0.000140515
0.000135672
0.000123544
0.000117637
0.000113053
0.000106232
0.000115553
0.000124727
0.00013544
0.00015071
0.000159193
0.000165997
0.000172496
0.000174404
0.000171061
0.000167234
0.000161729
0.000158905
0.000160966
0.000161644
0.000163474
0.000163583
0.000155396
0.000143592
0.000132717
0.000113177
8.45285e-05
0.000521408
0.000451615
0.000344521
0.00023251
0.000188105
0.000209765
0.000165053
0.000182105
0.00017425
0.000159799
0.000156873
0.000122073
0.000106455
9.82573e-05
7.51906e-05
7.07492e-05
6.43504e-05
5.99539e-05
5.68174e-05
5.56474e-05
5.07902e-05
4.91092e-05
4.8319e-05
4.87307e-05
4.87469e-05
4.9451e-05
5.04214e-05
5.14014e-05
5.33399e-05
5.5557e-05
5.82131e-05
5.97307e-05
6.01793e-05
5.87973e-05
5.69241e-05
5.41972e-05
5.38296e-05
0.000225187
0.00028628
0.000357032
0.00027168
0.000298667
0.000256325
0.000197372
0.000227101
0.000234016
0.000236187
0.000219912
0.000192219
0.000188107
0.000192003
0.000158707
0.000154906
0.000149057
0.000146415
0.000142822
0.000141945
0.000132495
0.000123217
0.000116041
0.000107285
9.58403e-05
8.86464e-05
7.98862e-05
7.4193e-05
6.58172e-05
5.9565e-05
5.47825e-05
4.9835e-05
4.78024e-05
4.41588e-05
4.43207e-05
4.34131e-05
4.44659e-05
4.51028e-05
0.000203266
0.00029459
0.00033918
0.000203228
0.000244232
0.000217088
0.000223198
0.000239172
0.00025268
0.000243231
0.000246879
0.000232519
0.000193777
0.000190358
0.00016638
0.000164847
0.000166251
0.000169747
0.000174691
0.000179396
0.000185111
0.000187318
0.000188554
0.000175941
0.000162056
0.000150691
0.0001365
0.000129544
0.000116993
0.000107817
0.000100395
9.09381e-05
8.51702e-05
7.78813e-05
7.42499e-05
6.94674e-05
6.67274e-05
6.35237e-05
0.000243939
0.000323113
0.000435136
0.000217838
0.000216053
0.000269835
0.000223925
0.000230451
0.000216263
0.000210411
0.000207542
0.000174293
0.000159207
0.000131251
0.000119776
0.000111721
0.000107689
0.000119179
0.000125939
0.000139691
0.000155648
0.000185943
0.000192079
0.000197574
0.000190111
0.000177191
0.00017205
0.000165689
0.000155128
0.000148774
0.000140405
0.000132018
0.000123951
0.000115257
0.000108385
0.000101251
9.55631e-05
0.000416532
0.000364371
0.00046195
0.000280823
0.000215907
0.000181173
0.000178517
0.000184295
0.000189287
0.000149789
0.000122002
0.000133874
0.00011561
9.05681e-05
8.09245e-05
7.65999e-05
7.30733e-05
7.06507e-05
6.84062e-05
7.18727e-05
7.70802e-05
0.000113178
0.000150806
0.000182399
0.000186648
0.000184017
0.000183747
0.000181922
0.000175865
0.000172512
0.000164894
0.000157622
0.000148756
0.000139388
0.00013202
0.000125136
0.000118797
0.00062714
0.000496999
0.000584577
0.000393905
0.000209771
0.000173296
0.000195962
0.000151487
0.000141836
0.000118882
0.000108176
0.000105189
9.74593e-05
0.000101542
0.000103617
9.91223e-05
9.61523e-05
8.50588e-05
7.81769e-05
6.33823e-05
5.70231e-05
5.47852e-05
6.77957e-05
0.000103054
0.000139698
0.000147103
0.000149149
0.000151983
0.0001529
0.000154047
0.000153094
0.00015238
0.000145434
0.000135889
0.000129982
0.000123727
0.000118137
0.00134034
0.000847641
0.000744112
0.000654336
0.000495067
0.000531835
0.000301512
0.00020408
0.00014667
0.000118386
0.000114872
0.000135678
0.000163149
0.000184999
0.000182263
0.000156946
0.000143453
0.000129541
0.000113109
9.92677e-05
8.37592e-05
7.07489e-05
5.21215e-05
4.28045e-05
5.99673e-05
0.000102669
0.000113462
0.000114142
0.000115915
0.00011735
0.000118734
0.000120378
0.000115622
0.000108833
0.000105068
0.000101799
9.77525e-05
0.00171958
0.001202
0.00089402
0.000696023
0.000546851
0.000894046
0.000903142
0.000742706
0.000603469
0.000525856
0.000485678
0.000483431
0.000443729
0.000339754
0.000242579
0.000186127
0.000154709
0.000138941
0.000118078
0.000105565
9.20826e-05
8.32863e-05
7.99983e-05
5.22777e-05
3.78919e-05
4.58233e-05
4.95625e-05
4.88968e-05
4.95796e-05
4.99371e-05
5.39578e-05
5.53334e-05
5.71151e-05
5.60541e-05
5.63897e-05
5.67903e-05
5.57281e-05
0.00155609
0.00127806
0.000960161
0.000761829
0.000613638
0.000486718
0.000405797
0.000355137
0.000318552
0.000286661
0.000260391
0.000252364
0.00023739
0.000214331
0.0001693
0.00011283
7.22466e-05
5.83121e-05
5.36314e-05
5.1491e-05
5.0645e-05
4.87682e-05
4.75054e-05
4.59381e-05
4.23067e-05
1.91683e-05
1.43708e-05
1.44677e-05
1.42125e-05
1.3772e-05
1.30796e-05
1.27536e-05
1.22812e-05
1.2062e-05
1.17474e-05
1.14931e-05
1.12511e-05
0.0015676
0.00132957
0.00094417
0.000732071
0.000431922
0.000192818
0.000180023
0.000180808
0.000182646
0.00018754
0.000188566
0.000193208
0.000196872
0.000201593
0.000203274
0.00020627
0.000209452
0.000215564
0.000222207
0.000224894
0.000224238
0.000219265
0.000211131
0.000206142
0.000196785
0.000181447
0.000168487
0.0001621
0.000157138
0.000152463
0.000149703
0.000144087
0.000134796
0.000126413
0.000120951
0.000109906
8.31514e-05
6.81639e-05
0.00117295
0.000933192
0.000475935
0.000384267
0.000396403
0.000436922
0.000385273
0.000396133
0.000385553
0.000395088
0.000392566
0.000402957
0.000407989
0.000416004
0.000423268
0.000428316
0.000448973
0.00047383
0.000496444
0.000516233
0.000525493
0.000522157
0.000519064
0.000513032
0.000494988
0.000473204
0.000449632
0.000430108
0.000418746
0.000400806
0.000382471
0.000357796
0.000300622
0.00023474
0.000178683
0.000146496
0.000137212
0.0001311
0.00165319
0.00127119
0.000646396
0.000315393
0.000244432
0.000283636
0.000198886
0.000167208
0.00014775
0.000148171
0.000140259
0.00014066
0.000140098
0.000137671
0.000138016
0.000133681
0.000141032
0.000152532
0.000165207
0.000182672
0.000193571
0.000201508
0.000208305
0.00021048
0.000205593
0.000197938
0.000188789
0.000181062
0.000178606
0.000174013
0.000171086
0.000165629
0.000153371
0.0001396
0.000130432
0.000113369
9.11051e-05
0.000940213
0.000561836
0.000418296
0.000251211
0.000240386
0.000277805
0.000235919
0.000185639
0.000171007
0.000153204
0.000149111
0.000115928
9.83237e-05
9.32465e-05
7.70185e-05
7.45045e-05
6.87553e-05
6.47236e-05
6.21894e-05
6.15354e-05
5.84486e-05
5.73185e-05
5.68936e-05
5.73599e-05
5.74332e-05
5.84381e-05
5.89923e-05
6.15135e-05
6.3197e-05
6.5597e-05
6.82331e-05
6.92976e-05
6.9732e-05
6.86485e-05
6.70647e-05
6.41431e-05
6.24346e-05
0.000400046
0.00036054
0.000392189
0.000300978
0.000357809
0.000345681
0.000269179
0.000262603
0.000265527
0.000258106
0.000250997
0.000219374
0.000177312
0.000184179
0.000154537
0.000156051
0.000148048
0.000144863
0.000141573
0.000139779
0.000130852
0.000121825
0.000116062
0.000107984
9.9903e-05
9.36184e-05
8.67108e-05
8.34482e-05
7.6871e-05
7.2787e-05
6.91951e-05
6.39688e-05
6.23122e-05
5.78976e-05
5.71885e-05
5.5305e-05
5.49431e-05
5.41054e-05
0.000301387
0.000350418
0.000331453
0.000254125
0.000276257
0.000280872
0.000259859
0.000243517
0.000234586
0.000239442
0.000214649
0.000218909
0.000184914
0.000182195
0.000171408
0.000168302
0.000173917
0.000178461
0.000185787
0.000192835
0.000198095
0.000199569
0.000199944
0.000189594
0.000176088
0.000163852
0.000150196
0.000142828
0.000131108
0.000122698
0.000115894
0.000107207
0.000102676
9.56329e-05
9.24949e-05
8.79551e-05
8.51835e-05
8.21399e-05
0.000257627
0.000340366
0.00034901
0.000253428
0.000255156
0.000282091
0.000263813
0.000239351
0.000208416
0.000193769
0.000193273
0.000175719
0.000169116
0.000147531
0.00013704
0.000129727
0.000126965
0.000137168
0.000147087
0.000164437
0.000183568
0.00020814
0.000212509
0.000216455
0.000207933
0.000197351
0.000192076
0.000186003
0.000176372
0.000169508
0.000161428
0.000152973
0.000145263
0.000136375
0.000129765
0.000123194
0.000117873
0.000330722
0.000372464
0.000388562
0.000293974
0.000246299
0.000194025
0.000199251
0.000203674
0.000202634
0.000191256
0.000176222
0.000141403
0.000118353
0.000104538
9.24468e-05
8.89264e-05
8.40937e-05
8.05162e-05
8.11797e-05
9.0696e-05
0.000101489
0.000142358
0.000178148
0.000204816
0.000204655
0.000200927
0.000202058
0.000203106
0.000198984
0.000197101
0.00018903
0.000182591
0.000173175
0.00016305
0.00015534
0.000148406
0.00014199
0.000542351
0.000551791
0.000530913
0.00033486
0.000229198
0.000203629
0.000176426
0.000150435
0.000140445
0.000124768
0.000112586
0.000102436
9.90272e-05
0.000101851
0.000102924
0.000100258
9.85318e-05
8.6492e-05
7.7965e-05
6.66497e-05
6.28556e-05
6.88018e-05
9.44462e-05
0.000138139
0.000159201
0.000158814
0.000161124
0.000165496
0.000169019
0.000173716
0.000172818
0.000176035
0.000171009
0.000159309
0.000152845
0.000146788
0.000140588
0.0010176
0.000808655
0.00077402
0.000657304
0.000589589
0.000556677
0.000314302
0.000211885
0.000165412
0.000140841
0.000139512
0.000157831
0.0001891
0.000206
0.000195307
0.000158923
0.00014255
0.000132598
0.000114276
9.80816e-05
8.29991e-05
6.90612e-05
5.54561e-05
6.33982e-05
8.39781e-05
0.000106103
0.000114464
0.000112873
0.000117108
0.000121622
0.00012582
0.000134544
0.000133273
0.000124891
0.000121404
0.000118715
0.000114319
0.00204499
0.00119559
0.000865955
0.000751832
0.000653672
0.00103368
0.000958438
0.000830479
0.000711643
0.000620959
0.000563967
0.000543852
0.000493265
0.000380797
0.000281301
0.000221266
0.000170611
0.000141343
0.000121839
0.00010813
9.39827e-05
8.67438e-05
7.88079e-05
4.75898e-05
3.63797e-05
5.26341e-05
5.7966e-05
4.75324e-05
4.6824e-05
4.64066e-05
5.28595e-05
5.73023e-05
6.24257e-05
6.1216e-05
6.21309e-05
6.33602e-05
6.27435e-05
0.00145483
0.00122221
0.000956641
0.000759987
0.000600214
0.000476851
0.000412847
0.000376275
0.000347319
0.000316236
0.000289087
0.000277254
0.000261912
0.000235282
0.00018869
0.000130037
8.43354e-05
6.33758e-05
5.53344e-05
5.27003e-05
5.09148e-05
4.77337e-05
4.66009e-05
4.3673e-05
3.57138e-05
1.67643e-05
1.58788e-05
1.6691e-05
1.67964e-05
1.59264e-05
1.3994e-05
1.30711e-05
1.24263e-05
1.21376e-05
1.19318e-05
1.1624e-05
1.1417e-05
0.00132155
0.0012752
0.00094381
0.000744871
0.000433447
0.000189633
0.000168278
0.000175455
0.000181228
0.00018777
0.000191261
0.00019717
0.000202345
0.00020796
0.000211291
0.000214599
0.000217488
0.000223022
0.000228789
0.00023081
0.000229859
0.00022442
0.000216594
0.000210417
0.000200119
0.000184568
0.000171708
0.00016586
0.000159689
0.000154317
0.000151664
0.000145788
0.00013541
0.000127302
0.000121524
0.000107799
7.87281e-05
6.49551e-05
0.000868636
0.000550837
0.000413755
0.000377325
0.000347606
0.000441632
0.000357252
0.000388932
0.00038309
0.000400311
0.000404675
0.000420362
0.000434673
0.000446288
0.000460482
0.000469226
0.000487228
0.000511012
0.000532226
0.000550708
0.000558276
0.000553138
0.000547242
0.000538184
0.000518437
0.000495952
0.000471193
0.000451851
0.000437306
0.000414346
0.000395013
0.000364431
0.000298713
0.000229977
0.000173485
0.000145166
0.000144145
0.000144461
0.0012778
0.000732173
0.000424886
0.000239683
0.000229167
0.000232447
0.00018702
0.000154609
0.000141632
0.000143402
0.000141547
0.000147471
0.000153002
0.00015482
0.000159742
0.000158756
0.000166013
0.000179111
0.000193418
0.000212677
0.000225383
0.000233966
0.00024084
0.000242944
0.000237283
0.000227038
0.000214778
0.000204097
0.000197318
0.000188639
0.000181711
0.000171159
0.000154869
0.000140723
0.000133201
0.000121613
0.000103441
0.00123216
0.000617422
0.000363096
0.000265483
0.000263645
0.00028121
0.000255537
0.00017644
0.000154858
0.000136235
0.000128937
0.000112399
9.64775e-05
9.18568e-05
8.10272e-05
7.8663e-05
7.47667e-05
7.09421e-05
6.96792e-05
6.92598e-05
6.75535e-05
6.69031e-05
6.67025e-05
6.70255e-05
6.6921e-05
6.77558e-05
6.87437e-05
7.1339e-05
7.39103e-05
7.76038e-05
8.1741e-05
8.49209e-05
8.6272e-05
8.56186e-05
8.32426e-05
7.87816e-05
7.39073e-05
0.000718337
0.000536834
0.000401865
0.000290055
0.000326562
0.000380522
0.000288457
0.000240024
0.000232356
0.000207934
0.000203657
0.000187565
0.000162637
0.000162618
0.000145648
0.000146825
0.000141635
0.000136965
0.000134169
0.000131379
0.000123288
0.000114996
0.000109789
0.00010286
9.62895e-05
9.10027e-05
8.59107e-05
8.33064e-05
7.87689e-05
7.63425e-05
7.39518e-05
7.10827e-05
6.97259e-05
6.65582e-05
6.51571e-05
6.29845e-05
6.1696e-05
5.99475e-05
0.000540452
0.000472608
0.000350835
0.000307641
0.000327171
0.000320729
0.000259481
0.000229415
0.000207894
0.000202686
0.000185681
0.000189114
0.000173634
0.000171431
0.000165304
0.000166482
0.000171533
0.000176612
0.000182504
0.000191752
0.000196549
0.000197187
0.000196724
0.000188698
0.000177109
0.000165238
0.000153293
0.000144932
0.000133575
0.000125177