/*--------------------------------*- C++ -*----------------------------------*\
| =========                 |                                                 |
| \\      /  F ield         | OpenFOAM: The Open Source CFD Toolbox           |
|  \\    /   O peration     | Version:  2.3.1                                 |
|   \\  /    A nd           | Web:      www.OpenFOAM.org                      |
|    \\/     M anipulation  |                                                 |
\*---------------------------------------------------------------------------*/
FoamFile
{
    version     2.0;
    format      ascii;
    class       volScalarField;
    location    "10";
    object      p;
}
// * * * * * * * * * * * * * * * * * * * * * * * * * * * * * * * * * * * * * //

dimensions      [0 2 -2 0 0 0 0];

internalField   nonuniform List<scalar> 
37632
(
0
-4.4394
-8.13646
-8.00821
-7.96998
-8.18062
-8.1232
-8.03183
-8.03512
-8.05883
-8.06549
-8.07384
-8.0744
-8.07684
-8.07678
-8.07843
-8.07848
-8.08097
-8.08337
-8.08617
-8.08794
-8.08821
-8.08816
-8.089
-8.08937
-8.08807
-8.08652
-8.08558
-8.08519
-8.08566
-8.08677
-8.08749
-8.08781
-8.08812
-8.08775
-8.08546
-8.08221
-8.08084
-13.2162
-10.1804
-9.15522
-8.45891
-8.13898
-8.22752
-8.21076
-8.11557
-8.08229
-8.07885
-8.07472
-8.07801
-8.07819
-8.07983
-8.08019
-8.07987
-8.08172
-8.08322
-8.08632
-8.08899
-8.0901
-8.08973
-8.08938
-8.09021
-8.09043
-8.08896
-8.08699
-8.08595
-8.08559
-8.08584
-8.08645
-8.08689
-8.08697
-8.08683
-8.08689
-8.08603
-8.08464
-8.08357
-8.41701
-8.19433
-8.25174
-8.13956
-8.11799
-8.11072
-8.10554
-8.08504
-8.08599
-8.08273
-8.08281
-8.08347
-8.08371
-8.08385
-8.08707
-8.08479
-8.08186
-8.08393
-8.08558
-8.08698
-8.08801
-8.08826
-8.08828
-8.0882
-8.08784
-8.08712
-8.08627
-8.08575
-8.08556
-8.08573
-8.08623
-8.08657
-8.08657
-8.08636
-8.08576
-8.0848
-8.08374
-6.69221
-7.8783
-8.20298
-8.07551
-8.16334
-8.13337
-8.13518
-8.09786
-8.09152
-8.08305
-8.08263
-8.08143
-8.08211
-8.08363
-8.08338
-8.08718
-8.08658
-8.08679
-8.08764
-8.08795
-8.08825
-8.08813
-8.08793
-8.0878
-8.0874
-8.08675
-8.08602
-8.0856
-8.08543
-8.08551
-8.08578
-8.08599
-8.08604
-8.08602
-8.08584
-8.08491
-8.08352
-7.2444
-8.13533
-8.18796
-8.07532
-8.10875
-8.11968
-8.09096
-8.09509
-8.09742
-8.09253
-8.09442
-8.09349
-8.09003
-8.091
-8.08922
-8.08724
-8.08722
-8.08639
-8.08674
-8.08683
-8.08683
-8.08687
-8.08673
-8.08654
-8.0863
-8.08589
-8.0855
-8.0853
-8.08513
-8.08515
-8.08528
-8.08526
-8.08512
-8.08475
-8.08416
-8.08337
-8.08241
-8.08128
-7.53259
-8.22807
-8.12738
-8.06182
-8.14342
-8.11622
-8.09292
-8.09632
-8.08548
-8.08348
-8.08463
-8.08644
-8.08816
-8.08648
-8.08972
-8.08879
-8.08887
-8.08809
-8.08767
-8.08724
-8.08689
-8.08662
-8.0863
-8.08602
-8.08564
-8.08529
-8.08504
-8.08483
-8.08472
-8.08472
-8.0847
-8.08465
-8.08453
-8.08428
-8.08388
-8.08323
-8.08241
-8.08157
-7.86613
-8.18228
-8.12514
-8.12432
-8.12109
-8.10852
-8.10976
-8.09779
-8.09634
-8.09671
-8.10392
-8.10578
-8.10082
-8.10041
-8.09607
-8.09267
-8.08993
-8.08826
-8.08734
-8.08666
-8.08614
-8.08578
-8.08552
-8.08523
-8.08493
-8.08472
-8.08452
-8.08438
-8.08427
-8.08423
-8.08414
-8.08403
-8.0838
-8.08349
-8.08305
-8.08251
-8.08194
-8.09888
-8.05969
-8.00714
-8.02208
-8.06769
-8.07953
-8.0891
-8.08486
-8.09351
-8.09317
-8.09268
-8.08392
-8.08872
-8.09195
-8.09159
-8.09159
-8.09055
-8.08895
-8.08759
-8.08654
-8.0859
-8.08536
-8.08506
-8.08471
-8.08437
-8.08425
-8.08409
-8.084
-8.08396
-8.0839
-8.08383
-8.08371
-8.08351
-8.08326
-8.08291
-8.08251
-8.08202
-8.08348
-8.02631
-8.06395
-8.147
-8.15239
-8.14017
-8.11941
-8.1069
-8.10307
-8.09652
-8.09455
-8.10947
-8.11581
-8.11121
-8.10499
-8.09784
-8.09254
-8.08927
-8.08734
-8.08623
-8.08543
-8.08485
-8.08461
-8.08426
-8.08402
-8.08378
-8.08367
-8.08363
-8.08363
-8.08359
-8.0835
-8.08336
-8.08313
-8.08287
-8.08254
-8.08217
-8.08177
-7.6931
-7.93866
-8.03093
-8.07444
-8.1238
-8.11864
-8.09378
-8.0882
-8.08119
-8.08635
-8.09181
-8.09378
-8.09597
-8.10187
-8.09888
-8.09449
-8.09101
-8.08856
-8.0866
-8.0853
-8.08458
-8.08428
-8.08406
-8.0839
-8.08351
-8.08326
-8.08321
-8.08333
-8.08337
-8.08339
-8.08332
-8.08319
-8.08298
-8.08275
-8.08246
-8.08214
-8.0818
-7.1297
-7.7463
-7.98525
-8.10465
-8.17707
-8.16703
-8.12748
-8.10333
-8.08769
-8.07922
-8.07831
-8.10271
-8.13542
-8.13589
-8.11571
-8.09945
-8.09178
-8.08808
-8.08595
-8.08495
-8.08465
-8.08433
-8.08378
-8.08365
-8.08336
-8.0828
-8.08288
-8.08304
-8.0832
-8.08322
-8.08319
-8.08306
-8.08284
-8.08262
-8.08232
-8.08202
-8.0817
-6.12742
-7.12939
-7.4593
-7.78024
-8.01744
-8.08329
-8.01521
-8.00263
-8.02662
-8.04915
-8.06523
-8.0976
-8.11853
-8.119
-8.10376
-8.09201
-8.08791
-8.08692
-8.08471
-8.08411
-8.08302
-8.08361
-8.08385
-8.08343
-8.08276
-8.0819
-8.08232
-8.08276
-8.08304
-8.08314
-8.08313
-8.08301
-8.08279
-8.08258
-8.0823
-8.08201
-8.08171
-5.63116
-6.91629
-8.28579
-8.49376
-8.16736
-8.31042
-8.23011
-8.15825
-8.16097
-8.17266
-8.17829
-8.18434
-8.18544
-8.18734
-8.18693
-8.18823
-8.18851
-8.19066
-8.19346
-8.19645
-8.19819
-8.19837
-8.1984
-8.19935
-8.19968
-8.19832
-8.19677
-8.19586
-8.19554
-8.19601
-8.19708
-8.19789
-8.19814
-8.19835
-8.19801
-8.19562
-8.19263
-8.1917
-11.8927
-9.56503
-9.17711
-8.67734
-8.39052
-8.33844
-8.28028
-8.21669
-8.19349
-8.19019
-8.18744
-8.18955
-8.19019
-8.19152
-8.19114
-8.19137
-8.19285
-8.19386
-8.19696
-8.19963
-8.20057
-8.20029
-8.20015
-8.20088
-8.20081
-8.19927
-8.19732
-8.19634
-8.19613
-8.19626
-8.19684
-8.19763
-8.19768
-8.19709
-8.19761
-8.19777
-8.19606
-8.19434
-9.30537
-8.32991
-8.56192
-8.27479
-8.22264
-8.22366
-8.21637
-8.19636
-8.19804
-8.19381
-8.19538
-8.19459
-8.1951
-8.1959
-8.19924
-8.19564
-8.19346
-8.19477
-8.1962
-8.19771
-8.1985
-8.19879
-8.19879
-8.19872
-8.19832
-8.19758
-8.19669
-8.19614
-8.19601
-8.19619
-8.19673
-8.19712
-8.19711
-8.19691
-8.19635
-8.1955
-8.1945
-8.62484
-8.32209
-8.42481
-8.27438
-8.26859
-8.24996
-8.24561
-8.20484
-8.20241
-8.19471
-8.19369
-8.19366
-8.19325
-8.19598
-8.19441
-8.19783
-8.19688
-8.19724
-8.19797
-8.19847
-8.19853
-8.19849
-8.19834
-8.19819
-8.19772
-8.19709
-8.19636
-8.19593
-8.1958
-8.19585
-8.19613
-8.19635
-8.19634
-8.19629
-8.19614
-8.19527
-8.19384
-8.47707
-8.41349
-8.44608
-8.21336
-8.23244
-8.24094
-8.2175
-8.20669
-8.2066
-8.20396
-8.20432
-8.20459
-8.20088
-8.20269
-8.19989
-8.19852
-8.19758
-8.197
-8.19717
-8.19714
-8.19729
-8.19725
-8.19713
-8.19691
-8.19664
-8.19626
-8.19586
-8.19561
-8.19548
-8.19548
-8.1956
-8.19557
-8.19542
-8.19506
-8.19446
-8.19369
-8.19276
-8.19167
-8.33463
-8.5657
-8.32195
-8.22811
-8.25043
-8.23134
-8.21554
-8.20819
-8.19973
-8.19757
-8.19836
-8.19721
-8.19888
-8.19786
-8.20003
-8.19981
-8.19933
-8.19863
-8.19813
-8.19765
-8.19729
-8.19707
-8.19665
-8.19642
-8.19603
-8.19566
-8.19542
-8.19518
-8.19509
-8.19506
-8.19504
-8.195
-8.19485
-8.19461
-8.19422
-8.19359
-8.19278
-8.19196
-8.33909
-8.47921
-8.26274
-8.24984
-8.24679
-8.22072
-8.22141
-8.21034
-8.20892
-8.20852
-8.21351
-8.21401
-8.21203
-8.21108
-8.20658
-8.20324
-8.20038
-8.19876
-8.19773
-8.19704
-8.19651
-8.19619
-8.1959
-8.1956
-8.19532
-8.1951
-8.19489
-8.19474
-8.19464
-8.19459
-8.1945
-8.19439
-8.19415
-8.19384
-8.19341
-8.19287
-8.19231
-8.51625
-8.33114
-8.1668
-8.15675
-8.19452
-8.19574
-8.20531
-8.20148
-8.20102
-8.20535
-8.20578
-8.19821
-8.2014
-8.20265
-8.2028
-8.20204
-8.20104
-8.19934
-8.19799
-8.19688
-8.19628
-8.19573
-8.19542
-8.19506
-8.19476
-8.19464
-8.19447
-8.19437
-8.19435
-8.19426
-8.19421
-8.19408
-8.19389
-8.19363
-8.19328
-8.19288
-8.19239
-8.59802
-8.2012
-8.20616
-8.26501
-8.27093
-8.24842
-8.23248
-8.21679
-8.21097
-8.20762
-8.20652
-8.21958
-8.22371
-8.22129
-8.21515
-8.20817
-8.20286
-8.19966
-8.19768
-8.1966
-8.19577
-8.19524
-8.19498
-8.19461
-8.19438
-8.19415
-8.19405
-8.194
-8.19401
-8.19396
-8.19388
-8.19373
-8.19351
-8.19324
-8.19291
-8.19253
-8.19214
-8.11553
-8.10979
-8.18469
-8.21859
-8.23983
-8.2192
-8.19725
-8.19644
-8.19845
-8.1998
-8.20747
-8.20983
-8.21004
-8.21406
-8.20981
-8.20511
-8.20152
-8.199
-8.19706
-8.19574
-8.19497
-8.19469
-8.19447
-8.19423
-8.1938
-8.19366
-8.1936
-8.19372
-8.19375
-8.19377
-8.19369
-8.19357
-8.19335
-8.19312
-8.19283
-8.19251
-8.19217
-8.05259
-8.17619
-8.29938
-8.32982
-8.32918
-8.28857
-8.24148
-8.22404
-8.20914
-8.19665
-8.19495
-8.21775
-8.2484
-8.24729
-8.22717
-8.21021
-8.20229
-8.19847
-8.19633
-8.19538
-8.19491
-8.19469
-8.19425
-8.19412
-8.19367
-8.19318
-8.19332
-8.19342
-8.19357
-8.1936
-8.19356
-8.19344
-8.19321
-8.19299
-8.19269
-8.19239
-8.19207
-7.46841
-7.70622
-7.83096
-8.01811
-8.17474
-8.19474
-8.1205
-8.11986
-8.14643
-8.16378
-8.17739
-8.20593
-8.22742
-8.22965
-8.21486
-8.20263
-8.19825
-8.19724
-8.19528
-8.19489
-8.19341
-8.19462
-8.19493
-8.19381
-8.19273
-8.19215
-8.19269
-8.19316
-8.19343
-8.19352
-8.1935
-8.19338
-8.19315
-8.19294
-8.19266
-8.19237
-8.19207
-6.84784
-7.04768
-8.44869
-8.33887
-8.30923
-8.33573
-8.33087
-8.27691
-8.28117
-8.28671
-8.29067
-8.29518
-8.29632
-8.29763
-8.29762
-8.29866
-8.29929
-8.30123
-8.30416
-8.30713
-8.3087
-8.30884
-8.30916
-8.31003
-8.31003
-8.30864
-8.3071
-8.30624
-8.30607
-8.30642
-8.30741
-8.30844
-8.30847
-8.30837
-8.30839
-8.30555
-8.30219
-8.30164
-10.7846
-9.37661
-8.96712
-8.58534
-8.44399
-8.38681
-8.36924
-8.31572
-8.30303
-8.2998
-8.29704
-8.29929
-8.30006
-8.30079
-8.30171
-8.30202
-8.3036
-8.30464
-8.30765
-8.31027
-8.31115
-8.3108
-8.31078
-8.31145
-8.31114
-8.3095
-8.30756
-8.30668
-8.30654
-8.30651
-8.30718
-8.30819
-8.30776
-8.3071
-8.30853
-8.30842
-8.30543
-8.30399
-8.05037
-8.58168
-8.17388
-8.38045
-8.3274
-8.33005
-8.3244
-8.30771
-8.30889
-8.30435
-8.30579
-8.30433
-8.30531
-8.30431
-8.30631
-8.30471
-8.30422
-8.3054
-8.30692
-8.30827
-8.3091
-8.30933
-8.30935
-8.30926
-8.30881
-8.30797
-8.30704
-8.30651
-8.30639
-8.30654
-8.30711
-8.30751
-8.3074
-8.3071
-8.30652
-8.30545
-8.30396
-8.20607
-8.34416
-8.45872
-8.33041
-8.37377
-8.35031
-8.33694
-8.31633
-8.30932
-8.30457
-8.30283
-8.3035
-8.30359
-8.30521
-8.3059
-8.30753
-8.30749
-8.30769
-8.30842
-8.30885
-8.30892
-8.30894
-8.30878
-8.30858
-8.30808
-8.3074
-8.30668
-8.30627
-8.30612
-8.30616
-8.30644
-8.3066
-8.30652
-8.30643
-8.30621
-8.3053
-8.3039
-8.20089
-8.39397
-8.31909
-8.3302
-8.33589
-8.33389
-8.32061
-8.31892
-8.31553
-8.31362
-8.31318
-8.31252
-8.31174
-8.3107
-8.31038
-8.30788
-8.30804
-8.30739
-8.3076
-8.30766
-8.3077
-8.30766
-8.30752
-8.3073
-8.30699
-8.3066
-8.30621
-8.30594
-8.30581
-8.30579
-8.3059
-8.30585
-8.30568
-8.3053
-8.3047
-8.30391
-8.30301
-8.30202
-8.28308
-8.44806
-8.35925
-8.33765
-8.3537
-8.3304
-8.3176
-8.31479
-8.30927
-8.30607
-8.30794
-8.30695
-8.30855
-8.30845
-8.31017
-8.31023
-8.30967
-8.30904
-8.30851
-8.30804
-8.30767
-8.30742
-8.30704
-8.30678
-8.3064
-8.30604
-8.30577
-8.30555
-8.30544
-8.30541
-8.30539
-8.30533
-8.30518
-8.30492
-8.30451
-8.3039
-8.30312
-8.30234
-8.38166
-8.45148
-8.34856
-8.35773
-8.34967
-8.32743
-8.32482
-8.32122
-8.31906
-8.3191
-8.32192
-8.32207
-8.32047
-8.32063
-8.31608
-8.31332
-8.31053
-8.30913
-8.30809
-8.3074
-8.30689
-8.30656
-8.30627
-8.30597
-8.30569
-8.30546
-8.30526
-8.3051
-8.30502
-8.30495
-8.30487
-8.30474
-8.3045
-8.30418
-8.30375
-8.30321
-8.30266
-8.44867
-8.34515
-8.27922
-8.28243
-8.30519
-8.30541
-8.31126
-8.30649
-8.31001
-8.31195
-8.31067
-8.30863
-8.31279
-8.31352
-8.31357
-8.31256
-8.31137
-8.30969
-8.30829
-8.30721
-8.3066
-8.30606
-8.30575
-8.30541
-8.30514
-8.30499
-8.30484
-8.30475
-8.30471
-8.30464
-8.30458
-8.30445
-8.30425
-8.30399
-8.30364
-8.30324
-8.30276
-8.47397
-8.30855
-8.34415
-8.38273
-8.37709
-8.35301
-8.33491
-8.3265
-8.32152
-8.31811
-8.31842
-8.32948
-8.33335
-8.33155
-8.32539
-8.31847
-8.31311
-8.30996
-8.30799
-8.30692
-8.30611
-8.30555
-8.30524
-8.30494
-8.30472
-8.30449
-8.30441
-8.30438
-8.30438
-8.30433
-8.30425
-8.30411
-8.30388
-8.30361
-8.30327
-8.3029
-8.30251
-8.02784
-8.18215
-8.29547
-8.32903
-8.34785
-8.31993
-8.3089
-8.30294
-8.30252
-8.30606
-8.31119
-8.31632
-8.32243
-8.32519
-8.32077
-8.31566
-8.3119
-8.30927
-8.30737
-8.30611
-8.30538
-8.30497
-8.30468
-8.3045
-8.30417
-8.30393
-8.30392
-8.30408
-8.30412
-8.30414
-8.30406
-8.30395
-8.30372
-8.30349
-8.30319
-8.30287
-8.30253
-8.31383
-8.40633
-8.51677
-8.51534
-8.46113
-8.39072
-8.35017
-8.32238
-8.31428
-8.30609
-8.30471
-8.32902
-8.35836
-8.35894
-8.338
-8.32091
-8.31243
-8.30867
-8.30664
-8.30572
-8.30526
-8.30497
-8.30432
-8.30438
-8.30449
-8.3035
-8.30359
-8.30379
-8.30394
-8.30397
-8.30394
-8.30382
-8.30357
-8.30335
-8.30305
-8.30275
-8.30243
-8.02531
-8.04905
-8.0879
-8.21319
-8.30735
-8.28566
-8.22301
-8.23539
-8.26131
-8.27568
-8.28829
-8.31544
-8.33806
-8.34101
-8.32653
-8.31339
-8.30844
-8.30734
-8.30567
-8.30493
-8.30395
-8.30426
-8.30431
-8.30451
-8.30396
-8.30238
-8.30249
-8.30348
-8.30377
-8.3039
-8.30388
-8.30376
-8.30351
-8.3033
-8.30302
-8.30273
-8.30243
-6.92372
-7.73682
-8.44624
-8.62964
-8.40292
-8.45568
-8.42559
-8.39478
-8.39809
-8.40019
-8.40305
-8.40625
-8.40736
-8.40837
-8.40852
-8.4093
-8.41016
-8.41194
-8.41493
-8.41788
-8.41927
-8.41941
-8.41991
-8.42067
-8.42038
-8.41896
-8.41742
-8.41666
-8.41659
-8.41679
-8.41781
-8.41894
-8.41867
-8.41848
-8.41859
-8.41539
-8.41197
-8.41147
-9.86519
-9.26555
-8.92342
-8.73117
-8.53947
-8.49151
-8.46012
-8.42254
-8.41375
-8.41062
-8.40892
-8.41017
-8.41117
-8.41189
-8.41255
-8.41297
-8.41438
-8.41549
-8.41838
-8.42097
-8.42172
-8.42137
-8.42147
-8.42192
-8.42142
-8.4197
-8.41777
-8.41705
-8.41691
-8.41675
-8.41767
-8.41868
-8.41769
-8.41734
-8.41956
-8.41859
-8.41471
-8.41327
-9.04144
-8.65896
-8.65004
-8.4726
-8.45195
-8.43298
-8.43286
-8.41731
-8.4192
-8.41486
-8.41606
-8.41504
-8.41565
-8.41567
-8.41652
-8.41503
-8.41523
-8.4162
-8.41768
-8.41903
-8.4197
-8.41991
-8.41991
-8.41979
-8.41924
-8.41833
-8.41737
-8.41686
-8.41673
-8.41686
-8.41748
-8.41787
-8.41763
-8.41728
-8.4167
-8.41549
-8.41392
-8.75785
-8.57529
-8.5895
-8.49621
-8.48282
-8.45551
-8.44419
-8.42573
-8.41967
-8.41547
-8.41394
-8.41452
-8.41442
-8.4164
-8.41657
-8.418
-8.41782
-8.41824
-8.41887
-8.41934
-8.41939
-8.41938
-8.41922
-8.41898
-8.41843
-8.41772
-8.417
-8.4166
-8.41644
-8.41647
-8.41677
-8.41689
-8.41675
-8.41667
-8.4165
-8.41554
-8.41412
-8.50535
-8.563
-8.53118
-8.4496
-8.44862
-8.43878
-8.42912
-8.42842
-8.42519
-8.42417
-8.42332
-8.42348
-8.42227
-8.42166
-8.42052
-8.41871
-8.41842
-8.41792
-8.41807
-8.41808
-8.41815
-8.41807
-8.41793
-8.41768
-8.41735
-8.41695
-8.41655
-8.41628
-8.41615
-8.41613
-8.41622
-8.41616
-8.41596
-8.41557
-8.41501
-8.41419
-8.4133
-8.41238
-8.49236
-8.58165
-8.51019
-8.46015
-8.46506
-8.43835
-8.43092
-8.42465
-8.4202
-8.41786
-8.41858
-8.41778
-8.4191
-8.41929
-8.42065
-8.42069
-8.42007
-8.41941
-8.41886
-8.4184
-8.41803
-8.41776
-8.4174
-8.41712
-8.41674
-8.41639
-8.41611
-8.4159
-8.41579
-8.41575
-8.41573
-8.41567
-8.4155
-8.41525
-8.41485
-8.41424
-8.41348
-8.41273
-8.51359
-8.54842
-8.48777
-8.46324
-8.45817
-8.43822
-8.43373
-8.4316
-8.42961
-8.42918
-8.43093
-8.43138
-8.4312
-8.43046
-8.42664
-8.42352
-8.42094
-8.41948
-8.41844
-8.41775
-8.41725
-8.41691
-8.41661
-8.41632
-8.41604
-8.41581
-8.41561
-8.41546
-8.41537
-8.4153
-8.41522
-8.41508
-8.41485
-8.41452
-8.41409
-8.41355
-8.41301
-8.54243
-8.46893
-8.42268
-8.41112
-8.42118
-8.42205
-8.42282
-8.42044
-8.41968
-8.4215
-8.4217
-8.42023
-8.42426
-8.42433
-8.42439
-8.42308
-8.42173
-8.42
-8.41858
-8.41751
-8.41688
-8.41637
-8.41606
-8.41576
-8.41549
-8.41533
-8.41519
-8.41511
-8.41507
-8.415
-8.41493
-8.41481
-8.4146
-8.41434
-8.41399
-8.41359
-8.41312
-8.58258
-8.46233
-8.49277
-8.49819
-8.48289
-8.4562
-8.44217
-8.43537
-8.43092
-8.42882
-8.42978
-8.43914
-8.44328
-8.44202
-8.43568
-8.42876
-8.42336
-8.42023
-8.41827
-8.41721
-8.41642
-8.41585
-8.41554
-8.41529
-8.41504
-8.41485
-8.41477
-8.41475
-8.41474
-8.4147
-8.41462
-8.41448
-8.41424
-8.41397
-8.41363
-8.41326
-8.41287
-8.26542
-8.29667
-8.40538
-8.44004
-8.448
-8.42299
-8.41536
-8.41049
-8.41316
-8.41665
-8.42239
-8.42805
-8.43506
-8.43694
-8.43201
-8.42631
-8.4223
-8.41953
-8.41765
-8.41642
-8.41573
-8.41521
-8.41495
-8.41486
-8.41449
-8.41433
-8.41433
-8.41444
-8.41449
-8.4145
-8.41443
-8.41432
-8.41408
-8.41385
-8.41355
-8.41323
-8.41289
-8.57261
-8.57964
-8.7284
-8.66877
-8.5719
-8.48928
-8.4547
-8.43268
-8.42654
-8.41936
-8.41768
-8.44028
-8.46914
-8.47073
-8.44918
-8.43155
-8.42256
-8.41876
-8.41687
-8.41603
-8.41567
-8.41503
-8.41457
-8.41493
-8.41457
-8.41382
-8.41405
-8.41417
-8.41433
-8.41435
-8.41432
-8.4142
-8.41393
-8.41371
-8.41342
-8.41311
-8.41279
-8.16498
-8.2083
-8.29243
-8.38236
-8.42186
-8.37463
-8.33102
-8.35168
-8.37607
-8.38922
-8.40098
-8.42646
-8.44969
-8.45292
-8.43852
-8.42435
-8.41874
-8.41744
-8.4159
-8.41522
-8.41465
-8.41443
-8.41459
-8.41521
-8.41416
-8.41311
-8.41334
-8.41397
-8.41421
-8.4143
-8.41427
-8.41415
-8.41386
-8.41365
-8.41338
-8.41308
-8.41279
-8.01209
-8.11989
-8.61211
-8.62636
-8.55921
-8.52765
-8.52592
-8.50925
-8.51219
-8.51307
-8.51499
-8.51724
-8.51831
-8.51909
-8.51944
-8.52013
-8.52112
-8.52283
-8.52582
-8.52872
-8.52994
-8.53004
-8.53063
-8.53124
-8.53074
-8.52926
-8.52771
-8.52707
-8.52704
-8.52711
-8.52824
-8.52937
-8.52878
-8.52866
-8.52875
-8.52527
-8.52184
-8.5214
-9.52009
-9.19525
-8.95563
-8.81738
-8.62518
-8.56414
-8.55632
-8.52882
-8.52369
-8.5206
-8.51943
-8.52068
-8.52174
-8.52236
-8.5233
-8.52383
-8.52518
-8.52637
-8.52917
-8.5317
-8.53232
-8.53195
-8.53206
-8.53234
-8.5317
-8.5299
-8.52801
-8.52743
-8.52723
-8.527
-8.52819
-8.52905
-8.52765
-8.52776
-8.5304
-8.52839
-8.52405
-8.52277
-8.2995
-8.74959
-8.51743
-8.58602
-8.53648
-8.54323
-8.53891
-8.52793
-8.5289
-8.52534
-8.52602
-8.525
-8.52562
-8.52487
-8.52593
-8.52527
-8.526
-8.52692
-8.52846
-8.52974
-8.53033
-8.53047
-8.53045
-8.53027
-8.52964
-8.52864
-8.52767
-8.52719
-8.52704
-8.52715
-8.52784
-8.52819
-8.52782
-8.52742
-8.52679
-8.52532
-8.5237
-8.57629
-8.63231
-8.69261
-8.58952
-8.58712
-8.55838
-8.54672
-8.53472
-8.52869
-8.52552
-8.52422
-8.52484
-8.52542
-8.52677
-8.52775
-8.52814
-8.52846
-8.52872
-8.52938
-8.52984
-8.52987
-8.52985
-8.52965
-8.52937
-8.52878
-8.52803
-8.52732
-8.52693
-8.52676
-8.52679
-8.5271
-8.52717
-8.52697
-8.52693
-8.52677
-8.52569
-8.52427
-8.48162
-8.59033
-8.5508
-8.56119
-8.54983
-8.54539
-8.53928
-8.53776
-8.53487
-8.53389
-8.53316
-8.53299
-8.53252
-8.53118
-8.53063
-8.52891
-8.52885
-8.52842
-8.52854
-8.52855
-8.52858
-8.52848
-8.52831
-8.52805
-8.52769
-8.52727
-8.52687
-8.5266
-8.52647
-8.52646
-8.52654
-8.52646
-8.52624
-8.52584
-8.52527
-8.52443
-8.52356
-8.52273
-8.54439
-8.61083
-8.59176
-8.57026
-8.56811
-8.54517
-8.53849
-8.53335
-8.53007
-8.52794
-8.52871
-8.52838
-8.52959
-8.5301
-8.53116
-8.53114
-8.53044
-8.52977
-8.5292
-8.52875
-8.52837
-8.52808
-8.52774
-8.52744
-8.52706
-8.52672
-8.52644
-8.52623
-8.52613
-8.52608
-8.52607
-8.52599
-8.52582
-8.52557
-8.52517
-8.52456
-8.52381
-8.52311
-8.58148
-8.60825
-8.57585
-8.56602
-8.56132
-8.54795
-8.5432
-8.54177
-8.53971
-8.53932
-8.54026
-8.54101
-8.54114
-8.54037
-8.53681
-8.53373
-8.53126
-8.52981
-8.52877
-8.52809
-8.52759
-8.52724
-8.52694
-8.52665
-8.52637
-8.52614
-8.52594
-8.5258
-8.52571
-8.52565
-8.52557
-8.52543
-8.52518
-8.52486
-8.52443
-8.52388
-8.52336
-8.57095
-8.54823
-8.53135
-8.52858
-8.5315
-8.5295
-8.5299
-8.52837
-8.52873
-8.53006
-8.53066
-8.5315
-8.53528
-8.53524
-8.53508
-8.5336
-8.53205
-8.53029
-8.52884
-8.5278
-8.52715
-8.52667
-8.52636
-8.52608
-8.52582
-8.52565
-8.52552
-8.52545
-8.52541
-8.52535
-8.52528
-8.52516
-8.52495
-8.52469
-8.52434
-8.52394
-8.52347
-8.63105
-8.59644
-8.61921
-8.60772
-8.58346
-8.55847
-8.54853
-8.54438
-8.54091
-8.53956
-8.54108
-8.54918
-8.55356
-8.55252
-8.54601
-8.53901
-8.53357
-8.53044
-8.5285
-8.52744
-8.52668
-8.52612
-8.52581
-8.5256
-8.52536
-8.52518
-8.52513
-8.52511
-8.52511
-8.52507
-8.52499
-8.52485
-8.5246
-8.52432
-8.52399
-8.52361
-8.52323
-8.41138
-8.42132
-8.51127
-8.54408
-8.54392
-8.52459
-8.52201
-8.51795
-8.52079
-8.52491
-8.53044
-8.53863
-8.54715
-8.54838
-8.54314
-8.53698
-8.53261
-8.52971
-8.52784
-8.52666
-8.526
-8.52544
-8.52521
-8.52519
-8.52487
-8.52468
-8.5247
-8.52481
-8.52486
-8.52486
-8.52479
-8.52468
-8.52443
-8.5242
-8.5239
-8.52358
-8.52324
-8.75846
-8.78257
-8.90777
-8.77467
-8.65045
-8.58492
-8.55512
-8.53738
-8.53657
-8.5316
-8.53011
-8.55122
-8.5799
-8.58256
-8.56011
-8.54205
-8.53262
-8.52875
-8.52698
-8.52622
-8.52599
-8.52537
-8.52481
-8.52523
-8.52496
-8.52411
-8.52448
-8.52454
-8.52471
-8.52473
-8.5247
-8.52459
-8.52428
-8.52406
-8.52378
-8.52346
-8.52315
-8.2156
-8.351
-8.48253
-8.52656
-8.51877
-8.46648
-8.44366
-8.46787
-8.49064
-8.50328
-8.51426
-8.53812
-8.56165
-8.56493
-8.55031
-8.53532
-8.52897
-8.52738
-8.52596
-8.52529
-8.52507
-8.52471
-8.52477
-8.52575
-8.52503
-8.52368
-8.52384
-8.5244
-8.52464
-8.52472
-8.52468
-8.52455
-8.52423
-8.524
-8.52374
-8.52343
-8.52314
-8.32256
-8.44856
-8.70373
-8.76349
-8.62682
-8.62913
-8.62869
-8.62207
-8.62475
-8.62526
-8.62659
-8.62821
-8.62925
-8.62993
-8.63044
-8.63113
-8.63219
-8.63389
-8.63685
-8.63963
-8.64067
-8.64071
-8.64131
-8.64176
-8.64107
-8.63953
-8.63799
-8.63745
-8.63741
-8.63739
-8.63867
-8.63973
-8.6389
-8.63894
-8.63885
-8.63521
-8.63188
-8.63149
-9.3296
-9.18198
-9.06466
-8.90493
-8.71301
-8.67008
-8.65473
-8.63768
-8.63359
-8.63113
-8.63055
-8.63152
-8.6326
-8.63326
-8.63418
-8.63478
-8.63604
-8.63733
-8.64003
-8.64245
-8.64294
-8.64253
-8.6426
-8.64271
-8.64196
-8.64007
-8.63824
-8.63779
-8.6375
-8.63729
-8.6387
-8.63935
-8.63771
-8.63828
-8.64105
-8.63821
-8.63376
-8.6326
-8.77521
-8.76165
-8.77667
-8.67662
-8.66167
-8.64389
-8.64655
-8.6375
-8.63867
-8.63576
-8.63627
-8.63547
-8.6359
-8.63577
-8.63634
-8.63602
-8.63683
-8.63776
-8.63925
-8.64047
-8.64094
-8.64101
-8.64094
-8.64069
-8.63999
-8.63892
-8.63795
-8.6375
-8.63732
-8.63742
-8.63819
-8.63848
-8.63802
-8.6376
-8.63694
-8.63538
-8.63371
-8.85726
-8.76911
-8.7867
-8.71324
-8.69004
-8.66436
-8.65253
-8.64331
-8.63832
-8.63595
-8.63501
-8.63561
-8.63641
-8.63766
-8.63837
-8.63874
-8.63896
-8.63931
-8.63991
-8.64035
-8.64038
-8.6403
-8.64008
-8.63974
-8.63911
-8.63833
-8.63763
-8.63725
-8.63707
-8.63712
-8.63744
-8.63748
-8.63724
-8.63725
-8.6371
-8.63592
-8.6345
-8.68857
-8.71679
-8.69401
-8.66538
-8.66125
-8.65285
-8.64929
-8.64709
-8.64466
-8.64389
-8.64326
-8.64319
-8.64276
-8.64146
-8.64082
-8.63943
-8.63929
-8.63892
-8.639
-8.63901
-8.639
-8.63887
-8.63868
-8.6384
-8.63802
-8.63758
-8.63718
-8.63692
-8.63679
-8.63678
-8.63686
-8.63678
-8.63653
-8.63614
-8.63556
-8.6347
-8.63385
-8.63308
-8.71112
-8.71891
-8.70387
-8.67934
-8.67131
-8.65326
-8.64778
-8.64287
-8.6402
-8.63866
-8.63918
-8.63912
-8.64023
-8.64087
-8.64171
-8.64157
-8.64082
-8.64012
-8.63952
-8.63908
-8.63869
-8.63839
-8.63806
-8.63774
-8.63737
-8.63703
-8.63675
-8.63655
-8.63645
-8.63641
-8.6364
-8.63632
-8.63614
-8.63589
-8.63549
-8.63487
-8.63414
-8.63347
-8.71297
-8.70847
-8.68945
-8.67338
-8.66689
-8.65688
-8.65266
-8.65172
-8.64986
-8.64954
-8.65015
-8.65102
-8.65138
-8.65043
-8.64712
-8.64397
-8.6416
-8.64013
-8.63909
-8.6384
-8.6379
-8.63754
-8.63724
-8.63696
-8.63669
-8.63646
-8.63627
-8.63613
-8.63605
-8.63598
-8.63591
-8.63576
-8.63552
-8.63519
-8.63476
-8.63423
-8.63371
-8.67467
-8.6533
-8.64961
-8.64458
-8.6443
-8.64182
-8.64064
-8.63919
-8.63898
-8.64033
-8.6415
-8.64294
-8.64637
-8.64619
-8.64575
-8.64411
-8.64237
-8.64055
-8.63907
-8.63806
-8.6374
-8.63694
-8.63663
-8.63636
-8.63612
-8.63596
-8.63585
-8.63579
-8.63574
-8.63569
-8.63562
-8.6355
-8.63529
-8.63502
-8.63468
-8.63427
-8.63382
-8.75792
-8.72835
-8.74075
-8.71142
-8.68243
-8.662
-8.65518
-8.65327
-8.65097
-8.65043
-8.65226
-8.6596
-8.66413
-8.6631
-8.65635
-8.64924
-8.64376
-8.64062
-8.63868
-8.63763
-8.6369
-8.63639
-8.63609
-8.63588
-8.63565
-8.63551
-8.63548
-8.63547
-8.63547
-8.63543
-8.63535
-8.63522
-8.63495
-8.63467
-8.63434
-8.63396
-8.63358
-8.56392
-8.5635
-8.61736
-8.64359
-8.64093
-8.62766
-8.62841
-8.62735
-8.63176
-8.63649
-8.64224
-8.65043
-8.65922
-8.65977
-8.65415
-8.6476
-8.64287
-8.63981
-8.63793
-8.63681
-8.6362
-8.63566
-8.63553
-8.6355
-8.63517
-8.63505
-8.63508
-8.63517
-8.63522
-8.63521
-8.63514
-8.63504
-8.63478
-8.63454
-8.63425
-8.63392
-8.63359
-8.93293
-9.00221
-9.03149
-8.83234
-8.71965
-8.68219
-8.65564
-8.64599
-8.64735
-8.64405
-8.64285
-8.66248
-8.69098
-8.6944
-8.67076
-8.65233
-8.64261
-8.63863
-8.6369
-8.63629
-8.63616
-8.63559
-8.63511
-8.63544
-8.63504
-8.63456
-8.63488
-8.63493
-8.63509
-8.63512
-8.63509
-8.63499
-8.63464
-8.6344
-8.63413
-8.6338
-8.63351
-8.34569
-8.52896
-8.65049
-8.63186
-8.60168
-8.5623
-8.55888
-8.58379
-8.60523
-8.61772
-8.62814
-8.65048
-8.6739
-8.67691
-8.66176
-8.64612
-8.63914
-8.6372
-8.63583
-8.63528
-8.63524
-8.6349
-8.63532
-8.63628
-8.63539
-8.6343
-8.63459
-8.63487
-8.63511
-8.63515
-8.63511
-8.63497
-8.6346
-8.63433
-8.6341
-8.63377
-8.63349
-8.63171
-8.60659
-8.81969
-8.82479
-8.72495
-8.72325
-8.73465
-8.73339
-8.73631
-8.73688
-8.73792
-8.73916
-8.7402
-8.74087
-8.74154
-8.74226
-8.74337
-8.74509
-8.74798
-8.7506
-8.75141
-8.75139
-8.75194
-8.75219
-8.75137
-8.74976
-8.74824
-8.7478
-8.74772
-8.74765
-8.74906
-8.75003
-8.74906
-8.74926
-8.74902
-8.74523
-8.74202
-8.74169
-9.32655
-9.18568
-9.1773
-8.97742
-8.80127
-8.76226
-8.75676
-8.74518
-8.74329
-8.74162
-8.74149
-8.74243
-8.74351
-8.74419
-8.74516
-8.74579
-8.74701
-8.74836
-8.751
-8.75321
-8.75353
-8.75309
-8.75308
-8.75302
-8.75216
-8.75021
-8.74847
-8.74811
-8.74773
-8.74758
-8.74915
-8.74962
-8.74787
-8.74877
-8.75144
-8.74812
-8.74377
-8.74268
-8.72318
-8.85945
-8.76463
-8.79087
-8.75186
-8.75217
-8.75311
-8.7477
-8.74832
-8.74612
-8.74648
-8.74577
-8.74629
-8.74613
-8.74688
-8.7468
-8.74769
-8.74861
-8.75006
-8.75118
-8.75154
-8.75152
-8.75139
-8.75105
-8.75029
-8.74917
-8.74821
-8.74779
-8.74757
-8.74768
-8.74851
-8.74876
-8.74824
-8.74781
-8.74711
-8.74548
-8.74386
-8.88321
-8.88115
-8.88747
-8.81746
-8.79228
-8.76988
-8.759
-8.75201
-8.748
-8.74626
-8.74574
-8.74642
-8.74745
-8.74845
-8.74916
-8.74925
-8.74961
-8.7499
-8.75048
-8.75087
-8.75086
-8.75073
-8.75047
-8.75008
-8.74941
-8.74861
-8.74793
-8.74756
-8.74737
-8.74743
-8.74778
-8.74779
-8.74753
-8.74758
-8.74744
-8.74616
-8.74476
-8.74995
-8.79562
-8.77134
-8.77589
-8.76606
-8.76154
-8.7586
-8.75652
-8.75449
-8.75384
-8.75339
-8.75326
-8.75299
-8.7516
-8.7511
-8.74991
-8.74976
-8.74944
-8.74947
-8.74946
-8.74941
-8.74926
-8.74904
-8.74873
-8.74833
-8.74788
-8.74748
-8.74722
-8.7471
-8.7471
-8.74719
-8.7471
-8.74684
-8.74644
-8.74585
-8.74498
-8.74415
-8.74344
-8.79372
-8.81036
-8.80564
-8.78639
-8.77467
-8.76137
-8.75616
-8.75232
-8.75028
-8.74922
-8.74973
-8.74995
-8.75095
-8.75164
-8.75229
-8.75201
-8.75121
-8.75046
-8.74985
-8.74939
-8.749
-8.74869
-8.74835
-8.74803
-8.74767
-8.74733
-8.74706
-8.74687
-8.74677
-8.74673
-8.74672
-8.74664
-8.74646
-8.74621
-8.74581
-8.74518
-8.74447
-8.74383
-8.80204
-8.80386
-8.79123
-8.7802
-8.77181
-8.76514
-8.76201
-8.76157
-8.76
-8.75983
-8.76028
-8.76119
-8.76164
-8.7606
-8.75739
-8.75423
-8.75193
-8.75044
-8.74938
-8.7487
-8.74819
-8.74783
-8.74753
-8.74725
-8.74699
-8.74676
-8.74658
-8.74646
-8.74638
-8.74632
-8.74624
-8.7461
-8.74585
-8.74552
-8.74509
-8.74457
-8.74405
-8.76127
-8.75775
-8.75955
-8.75624
-8.75266
-8.74858
-8.74789
-8.74819
-8.74891
-8.75048
-8.75216
-8.75439
-8.75745
-8.75715
-8.7564
-8.75459
-8.75266
-8.75078
-8.74928
-8.74829
-8.74763
-8.74719
-8.74689
-8.74663
-8.74641
-8.74627
-8.74617
-8.74611
-8.74607
-8.74602
-8.74595
-8.74584
-8.74562
-8.74536
-8.74501
-8.7446
-8.74417
-8.87337
-8.84832
-8.84456
-8.80808
-8.77914
-8.76603
-8.76224
-8.76241
-8.76134
-8.7614
-8.76349
-8.77034
-8.77491
-8.77375
-8.76667
-8.75942
-8.75393
-8.75075
-8.74881
-8.74777
-8.74708
-8.74662
-8.74633
-8.74613
-8.74594
-8.74584
-8.74582
-8.74582
-8.74582
-8.74579
-8.74572
-8.74559
-8.7453
-8.74501
-8.74469
-8.74431
-8.74393
-8.70421
-8.70776
-8.72764
-8.74386
-8.73924
-8.73232
-8.73519
-8.73688
-8.74209
-8.74732
-8.75333
-8.76232
-8.77107
-8.77064
-8.76495
-8.75813
-8.75307
-8.74982
-8.74794
-8.74687
-8.74633
-8.74587
-8.7458
-8.74574
-8.74547
-8.74541
-8.74545
-8.74554
-8.74558
-8.74556
-8.74548
-8.7454
-8.74512
-8.74487
-8.74459
-8.74426
-8.74394
-9.10147
-9.18095
-9.08005
-8.869
-8.7952
-8.77866
-8.75662
-8.75443
-8.75853
-8.75648
-8.75569
-8.77417
-8.80239
-8.80637
-8.78099
-8.76233
-8.75255
-8.74841
-8.74662
-8.74617
-8.74616
-8.74575
-8.74535
-8.74556
-8.74519
-8.74499
-8.74525
-8.74532
-8.74547
-8.74552
-8.74551
-8.74541
-8.745
-8.74474
-8.74449
-8.74415
-8.74386
-8.5524
-8.70804
-8.72954
-8.70312
-8.68448
-8.66563
-8.6748
-8.69945
-8.72003
-8.73245
-8.74245
-8.76339
-8.78635
-8.78872
-8.77273
-8.75665
-8.74925
-8.74683
-8.74553
-8.7451
-8.74528
-8.74497
-8.74553
-8.74638
-8.74581
-8.7448
-8.74519
-8.74529
-8.74555
-8.74559
-8.74557
-8.74543
-8.74503
-8.74465
-8.74445
-8.74411
-8.74385
-8.80001
-8.79325
-8.90335
-8.88498
-8.81845
-8.83053
-8.84236
-8.84434
-8.84733
-8.84813
-8.8491
-8.85014
-8.8512
-8.85192
-8.85273
-8.85352
-8.85465
-8.8564
-8.85921
-8.86159
-8.86215
-8.86206
-8.8625
-8.86253
-8.8616
-8.85994
-8.85847
-8.8581
-8.85795
-8.85788
-8.8594
-8.8603
-8.85927
-8.8596
-8.85925
-8.85539
-8.85227
-8.85196
-9.35131
-9.28779
-9.29861
-9.02366
-8.88161
-8.86639
-8.86059
-8.85386
-8.85312
-8.85224
-8.85252
-8.85341
-8.8545
-8.85524
-8.85625
-8.85692
-8.85807
-8.85951
-8.862
-8.86396
-8.86409
-8.8636
-8.8635
-8.86326
-8.8623
-8.86032
-8.85867
-8.85838
-8.85793
-8.85786
-8.85954
-8.85989
-8.85813
-8.85921
-8.86163
-8.85819
-8.85399
-8.85292
-8.94106
-8.89547
-8.94488
-8.87828
-8.86718
-8.85756
-8.86105
-8.85728
-8.858
-8.85646
-8.85679
-8.8563
-8.85684
-8.85696
-8.8576
-8.85774
-8.85859
-8.85951
-8.86087
-8.86187
-8.86209
-8.86199
-8.86177
-8.86134
-8.86052
-8.85938
-8.85844
-8.85805
-8.85781
-8.85792
-8.85881
-8.85903
-8.85847
-8.85807
-8.85735
-8.85571
-8.85411
-9.02505
-8.98628
-8.981
-8.92158
-8.89465
-8.87614
-8.86626
-8.86098
-8.85789
-8.85674
-8.85659
-8.85736
-8.85848
-8.85933
-8.85987
-8.85997
-8.86024
-8.86055
-8.86105
-8.86138
-8.86133
-8.86114
-8.86083
-8.86038
-8.85969
-8.85887
-8.8582
-8.85785