/*--------------------------------*- C++ -*----------------------------------*\
| =========                 |                                                 |
| \\      /  F ield         | OpenFOAM: The Open Source CFD Toolbox           |
|  \\    /   O peration     | Version:  2.3.1                                 |
|   \\  /    A nd           | Web:      www.OpenFOAM.org                      |
|    \\/     M anipulation  |                                                 |
\*---------------------------------------------------------------------------*/
FoamFile
{
    version     2.0;
    format      ascii;
    class       volScalarField;
    location    "10";
    object      p_rgh;
}
// * * * * * * * * * * * * * * * * * * * * * * * * * * * * * * * * * * * * * //

dimensions      [0 2 -2 0 0 0 0];

internalField   nonuniform List<scalar> 
37632
(
0.0551813
-4.38422
-8.08128
-7.95302
-7.9148
-8.12544
-8.06802
-7.97665
-7.97994
-8.00365
-8.01031
-8.01866
-8.01922
-8.02166
-8.02159
-8.02325
-8.0233
-8.02579
-8.02819
-8.03098
-8.03275
-8.03303
-8.03298
-8.03382
-8.03418
-8.03289
-8.03134
-8.0304
-8.03001
-8.03048
-8.03159
-8.03231
-8.03263
-8.03294
-8.03257
-8.03028
-8.02703
-8.02566
-13.161
-10.1252
-9.10004
-8.40373
-8.0838
-8.17234
-8.15558
-8.06039
-8.02711
-8.02367
-8.01954
-8.02283
-8.02301
-8.02464
-8.02501
-8.02468
-8.02653
-8.02804
-8.03114
-8.03381
-8.03492
-8.03454
-8.0342
-8.03503
-8.03525
-8.03378
-8.03181
-8.03077
-8.03041
-8.03066
-8.03127
-8.03171
-8.03179
-8.03165
-8.03171
-8.03085
-8.02946
-8.02839
-8.36183
-8.13915
-8.19656
-8.08438
-8.06281
-8.05554
-8.05036
-8.02986
-8.03081
-8.02755
-8.02763
-8.02829
-8.02853
-8.02867
-8.03189
-8.02961
-8.02668
-8.02875
-8.0304
-8.03179
-8.03283
-8.03307
-8.03309
-8.03302
-8.03266
-8.03194
-8.03109
-8.03057
-8.03038
-8.03055
-8.03105
-8.03139
-8.03139
-8.03118
-8.03058
-8.02962
-8.02856
-6.63703
-7.82312
-8.1478
-8.02033
-8.10816
-8.07819
-8.07999
-8.04268
-8.03634
-8.02787
-8.02744
-8.02625
-8.02693
-8.02845
-8.0282
-8.032
-8.0314
-8.03161
-8.03246
-8.03277
-8.03307
-8.03295
-8.03275
-8.03262
-8.03222
-8.03157
-8.03084
-8.03042
-8.03024
-8.03033
-8.0306
-8.03081
-8.03086
-8.03084
-8.03066
-8.02973
-8.02834
-7.18922
-8.08015
-8.13278
-8.02014
-8.05356
-8.06449
-8.03578
-8.03991
-8.04223
-8.03734
-8.03924
-8.03831
-8.03485
-8.03582
-8.03404
-8.03206
-8.03204
-8.03121
-8.03156
-8.03165
-8.03165
-8.03168
-8.03155
-8.03136
-8.03111
-8.03071
-8.03031
-8.03012
-8.02995
-8.02997
-8.03009
-8.03008
-8.02994
-8.02957
-8.02898
-8.02819
-8.02723
-8.0261
-7.47741
-8.17289
-8.0722
-8.00664
-8.08823
-8.06104
-8.03774
-8.04114
-8.0303
-8.0283
-8.02944
-8.03126
-8.03298
-8.0313
-8.03454
-8.03361
-8.03369
-8.0329
-8.03249
-8.03205
-8.03171
-8.03144
-8.03112
-8.03083
-8.03046
-8.03011
-8.02986
-8.02965
-8.02954
-8.02953
-8.02952
-8.02947
-8.02935
-8.0291
-8.0287
-8.02805
-8.02723
-8.02639
-7.81095
-8.1271
-8.06996
-8.06914
-8.06591
-8.05334
-8.05458
-8.04261
-8.04116
-8.04153
-8.04874
-8.0506
-8.04564
-8.04523
-8.04088
-8.03749
-8.03475
-8.03308
-8.03216
-8.03148
-8.03096
-8.0306
-8.03034
-8.03005
-8.02975
-8.02954
-8.02934
-8.02919
-8.02909
-8.02905
-8.02896
-8.02884
-8.02861
-8.0283
-8.02787
-8.02733
-8.02676
-8.0437
-8.00451
-7.95196
-7.9669
-8.01251
-8.02435
-8.03392
-8.02968
-8.03833
-8.03799
-8.0375
-8.02874
-8.03354
-8.03677
-8.03641
-8.03641
-8.03537
-8.03377
-8.03241
-8.03136
-8.03072
-8.03018
-8.02988
-8.02953
-8.02919
-8.02907
-8.02891
-8.02882
-8.02878
-8.02872
-8.02864
-8.02852
-8.02833
-8.02808
-8.02773
-8.02733
-8.02684
-8.0283
-7.97113
-8.00877
-8.09182
-8.09721
-8.08499
-8.06423
-8.05172
-8.04789
-8.04134
-8.03937
-8.05429
-8.06062
-8.05603
-8.04981
-8.04266
-8.03736
-8.03409
-8.03215
-8.03105
-8.03025
-8.02967
-8.02943
-8.02908
-8.02884
-8.0286
-8.02849
-8.02845
-8.02845
-8.0284
-8.02832
-8.02818
-8.02795
-8.02769
-8.02736
-8.02698
-8.02659
-7.63792
-7.88348
-7.97575
-8.01926
-8.06862
-8.06346
-8.0386
-8.03302
-8.026
-8.03117
-8.03663
-8.0386
-8.04078
-8.04669
-8.0437
-8.03931
-8.03583
-8.03338
-8.03142
-8.03012
-8.02939
-8.02909
-8.02888
-8.02872
-8.02833
-8.02808
-8.02803
-8.02815
-8.02819
-8.0282
-8.02813
-8.02801
-8.0278
-8.02757
-8.02727
-8.02696
-8.02662
-7.07452
-7.69112
-7.93006
-8.04946
-8.12189
-8.11185
-8.0723
-8.04815
-8.03251
-8.02404
-8.02313
-8.04753
-8.08024
-8.08071
-8.06053
-8.04427
-8.03659
-8.0329
-8.03077
-8.02977
-8.02947
-8.02915
-8.0286
-8.02847
-8.02818
-8.02762
-8.0277
-8.02786
-8.02801
-8.02804
-8.02801
-8.02787
-8.02766
-8.02743
-8.02714
-8.02684
-8.02652
-6.07224
-7.07421
-7.40412
-7.72506
-7.96226
-8.02811
-7.96003
-7.94744
-7.97143
-7.99397
-8.01005
-8.04242
-8.06335
-8.06382
-8.04857
-8.03683
-8.03273
-8.03174
-8.02953
-8.02893
-8.02784
-8.02843
-8.02867
-8.02825
-8.02758
-8.02672
-8.02713
-8.02758
-8.02786
-8.02796
-8.02794
-8.02782
-8.02761
-8.02739
-8.02712
-8.02683
-8.02652
-5.46562
-6.75075
-8.12024
-8.32822
-8.00182
-8.14488
-8.06457
-7.9927
-7.99543
-8.00712
-8.01275
-8.01879
-8.0199
-8.02179
-8.02139
-8.02268
-8.02297
-8.02511
-8.02792
-8.03091
-8.03265
-8.03282
-8.03286
-8.03381
-8.03413
-8.03278
-8.03123
-8.03031
-8.02999
-8.03047
-8.03154
-8.03235
-8.0326
-8.0328
-8.03247
-8.03007
-8.02708
-8.02615
-11.7271
-9.39949
-9.01156
-8.51179
-8.22498
-8.17289
-8.11474
-8.05115
-8.02795
-8.02465
-8.0219
-8.02401
-8.02465
-8.02598
-8.0256
-8.02583
-8.02731
-8.02832
-8.03142
-8.03409
-8.03502
-8.03475
-8.03461
-8.03534
-8.03527
-8.03372
-8.03177
-8.03079
-8.03058
-8.03072
-8.03129
-8.03208
-8.03213
-8.03154
-8.03207
-8.03223
-8.03052
-8.0288
-9.13983
-8.16436
-8.39638
-8.10925
-8.05709
-8.05811
-8.05083
-8.03081
-8.03249
-8.02827
-8.02984
-8.02905
-8.02955
-8.03035
-8.0337
-8.0301
-8.02792
-8.02923
-8.03066
-8.03217
-8.03296
-8.03325
-8.03324
-8.03318
-8.03278
-8.03203
-8.03114
-8.0306
-8.03047
-8.03064
-8.03118
-8.03157
-8.03156
-8.03136
-8.03081
-8.02995
-8.02896
-8.45929
-8.15655
-8.25926
-8.10884
-8.10304
-8.08442
-8.08007
-8.0393
-8.03687
-8.02916
-8.02815
-8.02812
-8.0277
-8.03043
-8.02887
-8.03229
-8.03134
-8.0317
-8.03242
-8.03293
-8.03299
-8.03295
-8.0328
-8.03265
-8.03217
-8.03155
-8.03082
-8.03039
-8.03026
-8.03031
-8.03059
-8.0308
-8.0308
-8.03075
-8.03059
-8.02972
-8.0283
-8.31152
-8.24794
-8.28054
-8.04781
-8.06689
-8.0754
-8.05196
-8.04115
-8.04106
-8.03842
-8.03878
-8.03905
-8.03533
-8.03715
-8.03435
-8.03297
-8.03204
-8.03145
-8.03163
-8.03159
-8.03174
-8.0317
-8.03159
-8.03137
-8.03109
-8.03072
-8.03032
-8.03007
-8.02994
-8.02993
-8.03005
-8.03003
-8.02987
-8.02951
-8.02892
-8.02815
-8.02722
-8.02613
-8.16909
-8.40016
-8.15641
-8.06256
-8.08489
-8.0658
-8.05
-8.04265
-8.03419
-8.03203
-8.03281
-8.03167
-8.03333
-8.03231
-8.03448
-8.03426
-8.03378
-8.03308
-8.03259
-8.03211
-8.03175
-8.03152
-8.0311
-8.03087
-8.03049
-8.03012
-8.02988
-8.02964
-8.02954
-8.02952
-8.0295
-8.02945
-8.02931
-8.02906
-8.02867
-8.02804
-8.02724
-8.02641
-8.17355
-8.31367
-8.0972
-8.0843
-8.08125
-8.05517
-8.05587
-8.04479
-8.04338
-8.04298
-8.04797
-8.04846
-8.04649
-8.04553
-8.04103
-8.0377
-8.03483
-8.03322
-8.03218
-8.0315
-8.03097
-8.03065
-8.03036
-8.03006
-8.02977
-8.02955
-8.02935
-8.0292
-8.0291
-8.02905
-8.02896
-8.02884
-8.02861
-8.02829
-8.02786
-8.02732
-8.02676
-8.3507
-8.1656
-8.00126
-7.9912
-8.02898
-8.0302
-8.03977
-8.03594
-8.03547
-8.03981
-8.04023
-8.03266
-8.03586
-8.0371
-8.03726
-8.03649
-8.0355
-8.03379
-8.03245
-8.03134
-8.03074
-8.03018
-8.02988
-8.02951
-8.02922
-8.02909
-8.02892
-8.02883
-8.0288
-8.02872
-8.02866
-8.02853
-8.02834
-8.02809
-8.02774
-8.02734
-8.02685
-8.43247
-8.03565
-8.04061
-8.09947
-8.10538
-8.08288
-8.06693
-8.05125
-8.04543
-8.04208
-8.04098
-8.05403
-8.05816
-8.05575
-8.04961
-8.04263
-8.03731
-8.03412
-8.03214
-8.03106
-8.03023
-8.02969
-8.02944
-8.02907
-8.02883
-8.0286
-8.0285
-8.02846
-8.02846
-8.02841
-8.02833
-8.02819
-8.02796
-8.0277
-8.02736
-8.02699
-8.0266
-7.94999
-7.94425
-8.01915
-8.05305
-8.07428
-8.05366
-8.0317
-8.03089
-8.0329
-8.03425
-8.04192
-8.04428
-8.04449
-8.04851
-8.04426
-8.03956
-8.03598
-8.03346
-8.03151
-8.0302
-8.02942
-8.02914
-8.02892
-8.02869
-8.02826
-8.02811
-8.02806
-8.02817
-8.0282
-8.02822
-8.02814
-8.02803
-8.02781
-8.02758
-8.02728
-8.02697
-8.02662
-7.88705
-8.01065
-8.13383
-8.16427
-8.16364
-8.12303
-8.07594
-8.0585
-8.04359
-8.03111
-8.02941
-8.0522
-8.08285
-8.08175
-8.06162
-8.04467
-8.03675
-8.03292
-8.03079
-8.02984
-8.02936
-8.02915
-8.02871
-8.02858
-8.02812
-8.02764
-8.02778
-8.02788
-8.02803
-8.02805
-8.02802
-8.02789
-8.02766
-8.02744
-8.02715
-8.02685
-8.02652
-7.30287
-7.54068
-7.66542
-7.85257
-8.0092
-8.0292
-7.95495
-7.95431
-7.98088
-7.99823
-8.01184
-8.04039
-8.06187
-8.06411
-8.04931
-8.03708
-8.03271
-8.0317
-8.02973
-8.02935
-8.02787
-8.02908
-8.02939
-8.02827
-8.02718
-8.02661
-8.02715
-8.02761
-8.02789
-8.02797
-8.02796
-8.02784
-8.02761
-8.0274
-8.02712
-8.02683
-8.02652
-6.57193
-6.77177
-8.17279
-8.06296
-8.03333
-8.05982
-8.05497
-8.001
-8.00527
-8.0108
-8.01476
-8.01928
-8.02041
-8.02172
-8.02172
-8.02275
-8.02338
-8.02532
-8.02825
-8.03122
-8.03279
-8.03294
-8.03325
-8.03413
-8.03412
-8.03273
-8.03119
-8.03033
-8.03017
-8.03051
-8.0315
-8.03253
-8.03256
-8.03247
-8.03249
-8.02964
-8.02628
-8.02574
-10.5087
-9.1007
-8.69121
-8.30943
-8.16808
-8.11091
-8.09333
-8.03981
-8.02712
-8.0239
-8.02113
-8.02339
-8.02416
-8.02488
-8.0258
-8.02612
-8.02769
-8.02873
-8.03174
-8.03436
-8.03524
-8.03489
-8.03488
-8.03554
-8.03523
-8.03359
-8.03165
-8.03077
-8.03063
-8.03061
-8.03128
-8.03228
-8.03185
-8.03119
-8.03263
-8.03251
-8.02953
-8.02808
-7.77447
-8.30578
-7.89797
-8.10454
-8.0515
-8.05415
-8.04849
-8.0318
-8.03298
-8.02844
-8.02988
-8.02842
-8.0294
-8.0284
-8.0304
-8.0288
-8.02831
-8.02949
-8.03101
-8.03236
-8.03319
-8.03342
-8.03344
-8.03336
-8.0329
-8.03206
-8.03114
-8.03061
-8.03048
-8.03063
-8.0312
-8.0316
-8.03149
-8.03119
-8.03061
-8.02954
-8.02805
-7.93017
-8.06825
-8.18281
-8.05451
-8.09787
-8.07441
-8.06104
-8.04043
-8.03341
-8.02867
-8.02692
-8.02759
-8.02769
-8.02931
-8.03
-8.03163
-8.03158
-8.03179
-8.03252
-8.03294
-8.03302
-8.03303
-8.03287
-8.03267
-8.03217
-8.03149
-8.03077
-8.03036
-8.03021
-8.03025
-8.03053
-8.03069
-8.03062
-8.03052
-8.0303
-8.0294
-8.028
-7.92499
-8.11806
-8.04318
-8.05429
-8.05999
-8.05798
-8.0447
-8.04302
-8.03962
-8.03771
-8.03727
-8.03661
-8.03584
-8.03479
-8.03447
-8.03197
-8.03214
-8.03149
-8.03169
-8.03175
-8.03179
-8.03175
-8.03162
-8.0314
-8.03108
-8.0307
-8.0303
-8.03004
-8.02991
-8.02989
-8.02999
-8.02994
-8.02977
-8.02939
-8.0288
-8.02801
-8.0271
-8.02611
-8.00717
-8.17215
-8.08335
-8.06174
-8.0778
-8.05449
-8.04169
-8.03889
-8.03336
-8.03016
-8.03204
-8.03104
-8.03264
-8.03254
-8.03426
-8.03432
-8.03377
-8.03313
-8.0326
-8.03213
-8.03177
-8.03151
-8.03113
-8.03087
-8.03049
-8.03013
-8.02987
-8.02964
-8.02954
-8.0295
-8.02948
-8.02943
-8.02927
-8.02902
-8.02861
-8.028
-8.02721
-8.02644
-8.10576
-8.17557
-8.07265
-8.08182
-8.07376
-8.05152
-8.04892
-8.04532
-8.04315
-8.04319
-8.04601
-8.04616
-8.04456
-8.04473
-8.04018
-8.03742
-8.03463
-8.03322
-8.03218
-8.0315
-8.03099
-8.03065
-8.03036
-8.03007
-8.02979
-8.02956
-8.02935
-8.0292
-8.02911
-8.02904
-8.02896
-8.02883
-8.0286
-8.02828
-8.02785
-8.0273
-8.02675
-8.17277
-8.06925
-8.00331
-8.00652
-8.02928
-8.02951
-8.03535
-8.03058
-8.0341
-8.03604
-8.03477
-8.03272
-8.03688
-8.03761
-8.03767
-8.03666
-8.03546
-8.03378
-8.03238
-8.0313
-8.03069
-8.03015
-8.02984
-8.0295
-8.02924
-8.02908
-8.02893
-8.02884
-8.02881
-8.02874
-8.02867
-8.02854
-8.02834
-8.02808
-8.02773
-8.02734
-8.02685
-8.19807
-8.03264
-8.06824
-8.10682
-8.10118
-8.0771
-8.05901
-8.05059
-8.04561
-8.0422
-8.04251
-8.05357
-8.05744
-8.05564
-8.04948
-8.04256
-8.0372
-8.03406
-8.03209
-8.03101
-8.03021
-8.02965
-8.02933
-8.02904
-8.02882
-8.02858
-8.0285
-8.02847
-8.02847
-8.02843
-8.02834
-8.02821
-8.02797
-8.0277
-8.02737
-8.02699
-8.0266
-7.75193
-7.90624
-8.01956
-8.05313
-8.07194
-8.04402
-8.03299
-8.02703
-8.02661
-8.03015
-8.03528
-8.04041
-8.04653
-8.04928
-8.04486
-8.03975
-8.03599
-8.03336
-8.03147
-8.03021
-8.02948
-8.02906
-8.02878
-8.02859
-8.02826
-8.02802
-8.02802
-8.02817
-8.02822
-8.02823
-8.02816
-8.02804
-8.02781
-8.02758
-8.02728
-8.02697
-8.02663
-8.03792
-8.13043
-8.24087
-8.23943
-8.18523
-8.11481
-8.07426
-8.04648
-8.03838
-8.03018
-8.02881
-8.05312
-8.08246
-8.08303
-8.0621
-8.04501
-8.03653
-8.03276
-8.03073
-8.02982
-8.02935
-8.02906
-8.02841
-8.02848
-8.02858
-8.02759
-8.02768
-8.02788
-8.02803
-8.02807
-8.02803
-8.02791
-8.02766
-8.02744
-8.02715
-8.02684
-8.02652
-7.74941
-7.77314
-7.81199
-7.93728
-8.03144
-8.00976
-7.94711
-7.95949
-7.98541
-7.99977
-8.01238
-8.03953
-8.06216
-8.06511
-8.05063
-8.03749
-8.03253
-8.03144
-8.02976
-8.02903
-8.02805
-8.02835
-8.0284
-8.02861
-8.02805
-8.02647
-8.02658
-8.02757
-8.02786
-8.02799
-8.02797
-8.02785
-8.0276
-8.02739
-8.02711
-8.02682
-8.02652
-6.53746
-7.35055
-8.05998
-8.24337
-8.01665
-8.06941
-8.03932
-8.00851
-8.01182
-8.01392
-8.01678
-8.01998
-8.02109
-8.0221
-8.02225
-8.02303
-8.02389
-8.02567
-8.02866
-8.03161
-8.03301
-8.03314
-8.03364
-8.0344
-8.03411
-8.03269
-8.03115
-8.03039
-8.03032
-8.03052
-8.03154
-8.03268
-8.0324
-8.03221
-8.03233
-8.02912
-8.0257
-8.0252
-9.47892
-8.87928
-8.53715
-8.34491
-8.1532
-8.10525
-8.07385
-8.03627
-8.02748
-8.02435
-8.02265
-8.0239
-8.02491
-8.02562
-8.02628
-8.0267
-8.02812
-8.02922
-8.03211
-8.0347
-8.03545
-8.03511
-8.0352
-8.03565
-8.03515
-8.03343
-8.0315
-8.03078
-8.03064
-8.03048
-8.0314
-8.03241
-8.03142
-8.03107
-8.03329
-8.03233
-8.02844
-8.027
-8.65517
-8.27269
-8.26377
-8.08633
-8.06568
-8.04672
-8.04659
-8.03105
-8.03293
-8.02859
-8.02979
-8.02877
-8.02938
-8.0294
-8.03025
-8.02876
-8.02896
-8.02993
-8.03141
-8.03276
-8.03343
-8.03365
-8.03364
-8.03352
-8.03298
-8.03206
-8.0311
-8.03059
-8.03046
-8.03059
-8.03121
-8.0316
-8.03136
-8.03101
-8.03043
-8.02922
-8.02765
-8.37158
-8.18902
-8.20323
-8.10994
-8.09655
-8.06924
-8.05792
-8.03946
-8.03341
-8.02921
-8.02767
-8.02825
-8.02815
-8.03013
-8.0303
-8.03173
-8.03155
-8.03197
-8.0326
-8.03307
-8.03312
-8.03311
-8.03295
-8.03271
-8.03216
-8.03145
-8.03073
-8.03033
-8.03018
-8.0302
-8.0305
-8.03062
-8.03048
-8.03041
-8.03023
-8.02927
-8.02786
-8.11908
-8.17673
-8.14491
-8.06333
-8.06235
-8.05251
-8.04285
-8.04215
-8.03892
-8.0379
-8.03705
-8.03721
-8.036
-8.03539
-8.03425
-8.03244
-8.03216
-8.03165
-8.0318
-8.03182
-8.03188
-8.0318
-8.03166
-8.03142
-8.03108
-8.03068
-8.03028
-8.03001
-8.02988
-8.02986
-8.02995
-8.02989
-8.02969
-8.02931
-8.02874
-8.02792
-8.02703
-8.02611
-8.10609
-8.19538
-8.12392
-8.07388
-8.07879
-8.05208
-8.04465
-8.03838
-8.03393
-8.03159
-8.03231
-8.03151
-8.03283
-8.03303
-8.03438
-8.03443
-8.0338
-8.03314
-8.03259
-8.03213
-8.03176
-8.03149
-8.03113
-8.03085
-8.03047
-8.03012
-8.02984
-8.02963
-8.02952
-8.02948
-8.02946
-8.0294
-8.02923
-8.02898
-8.02858
-8.02797
-8.02721
-8.02646
-8.12732
-8.16215
-8.1015
-8.07697
-8.0719
-8.05195
-8.04746
-8.04533
-8.04335
-8.04291
-8.04466
-8.04511
-8.04493
-8.04419
-8.04037
-8.03725
-8.03467
-8.03321
-8.03217
-8.03148
-8.03098
-8.03064
-8.03034
-8.03006
-8.02978
-8.02954
-8.02934
-8.02919
-8.0291
-8.02903
-8.02895
-8.02881
-8.02858
-8.02825
-8.02782
-8.02728
-8.02674
-8.15616
-8.08266
-8.03641
-8.02486
-8.03491
-8.03578
-8.03655
-8.03417
-8.03341
-8.03523
-8.03543
-8.03396
-8.03799
-8.03806
-8.03812
-8.03681
-8.03546
-8.03373
-8.03231
-8.03124
-8.03061
-8.0301
-8.02979
-8.02949
-8.02923
-8.02906
-8.02892
-8.02884
-8.0288
-8.02873
-8.02866
-8.02854
-8.02833
-8.02807
-8.02773
-8.02733
-8.02685
-8.19632
-8.07607
-8.1065
-8.11192
-8.09662
-8.06994
-8.0559
-8.0491
-8.04465
-8.04255
-8.04351
-8.05287
-8.05701
-8.05575
-8.04941
-8.04249
-8.03709
-8.03396
-8.03201
-8.03094
-8.03015
-8.02958
-8.02927
-8.02902
-8.02877
-8.02858
-8.0285
-8.02848
-8.02848
-8.02844
-8.02835
-8.02821
-8.02797
-8.0277
-8.02737
-8.02699
-8.0266
-7.87915
-7.9104
-8.01911
-8.05377
-8.06173
-8.03673
-8.02909
-8.02422
-8.02689
-8.03039
-8.03612
-8.04178
-8.04879
-8.05067
-8.04574
-8.04004
-8.03603
-8.03326
-8.03138
-8.03015
-8.02946
-8.02894
-8.02868
-8.02859
-8.02822
-8.02807
-8.02806
-8.02818
-8.02822
-8.02823
-8.02816
-8.02805
-8.02781
-8.02758
-8.02728
-8.02696
-8.02662
-8.18634
-8.19337
-8.34213
-8.2825
-8.18563
-8.10301
-8.06844
-8.04642
-8.04027
-8.03309
-8.03141
-8.05401
-8.08287
-8.08446
-8.06291
-8.04528
-8.03629
-8.03249
-8.0306
-8.02976
-8.0294
-8.02876
-8.0283
-8.02866
-8.0283
-8.02755
-8.02778
-8.0279
-8.02806
-8.02808
-8.02805
-8.02793
-8.02766
-8.02744
-8.02715
-8.02684
-8.02652
-7.77871
-7.82204
-7.90616
-7.99609
-8.03559
-7.98836
-7.94475
-7.96541
-7.9898
-8.00295
-8.01471
-8.04019
-8.06342
-8.06665
-8.05225
-8.03808
-8.03247
-8.03117
-8.02963
-8.02895
-8.02838
-8.02816
-8.02832
-8.02894
-8.02789
-8.02684
-8.02707
-8.02771
-8.02794
-8.02803
-8.028
-8.02788
-8.0276
-8.02738
-8.02711
-8.02681
-8.02652
-7.51546
-7.62326
-8.11548
-8.12973
-8.06258
-8.03102
-8.02929
-8.01262
-8.01556
-8.01644
-8.01836
-8.02061
-8.02168
-8.02246
-8.0228
-8.0235
-8.02449
-8.0262
-8.02919
-8.03209
-8.03331
-8.03341
-8.034
-8.03461
-8.03411
-8.03263
-8.03108
-8.03044
-8.03041
-8.03048
-8.03161
-8.03274
-8.03215
-8.03203
-8.03212
-8.02864
-8.02521
-8.02477
-9.02346
-8.69862
-8.459
-8.32074
-8.12854
-8.06751
-8.05969
-8.03219
-8.02706
-8.02397
-8.0228
-8.02405
-8.0251
-8.02573
-8.02667
-8.0272
-8.02854
-8.02973
-8.03254
-8.03507
-8.03569
-8.03532
-8.03543
-8.03571
-8.03507
-8.03326
-8.03137
-8.0308
-8.0306
-8.03037
-8.03156
-8.03242
-8.03102
-8.03113
-8.03377
-8.03175
-8.02742
-8.02614
-7.80286
-8.25295
-8.0208
-8.08939
-8.03985
-8.0466
-8.04228
-8.0313
-8.03227
-8.02871
-8.02939
-8.02837
-8.02898
-8.02824
-8.0293
-8.02863
-8.02937
-8.03029
-8.03183
-8.03311
-8.03369
-8.03384
-8.03382
-8.03364
-8.03301
-8.03201
-8.03104
-8.03056
-8.03041
-8.03052
-8.03121
-8.03155
-8.03119
-8.03079
-8.03016
-8.02869
-8.02707
-8.07966
-8.13568
-8.19598
-8.09289
-8.09048
-8.06174
-8.05009
-8.03809
-8.03206
-8.02889
-8.02759
-8.02821
-8.02878
-8.03013
-8.03112
-8.03151
-8.03183
-8.03209
-8.03275
-8.0332
-8.03324
-8.03322
-8.03302
-8.03274
-8.03214
-8.0314
-8.03069
-8.0303
-8.03013
-8.03016
-8.03047
-8.03054
-8.03034
-8.03029
-8.03014
-8.02906
-8.02764
-7.98499
-8.0937
-8.05417
-8.06456
-8.0532
-8.04876
-8.04265
-8.04112
-8.03824
-8.03726
-8.03653
-8.03636
-8.03589
-8.03455
-8.034
-8.03228
-8.03222
-8.03178
-8.0319
-8.03192
-8.03194
-8.03185
-8.03168
-8.03142
-8.03106
-8.03064
-8.03024
-8.02997
-8.02984
-8.02983
-8.02991
-8.02983
-8.0296
-8.02921
-8.02864
-8.0278
-8.02693
-8.0261
-8.04776
-8.11419
-8.09513
-8.07363
-8.07148
-8.04854
-8.04185
-8.03672
-8.03344
-8.03131
-8.03207
-8.03175
-8.03296
-8.03346
-8.03452
-8.0345
-8.03381
-8.03314
-8.03256
-8.03212
-8.03174
-8.03145
-8.03111
-8.03081
-8.03043
-8.03009
-8.02981
-8.0296
-8.02949
-8.02945
-8.02944
-8.02936
-8.02919
-8.02894
-8.02853
-8.02792
-8.02718
-8.02647
-8.08485
-8.11162
-8.07922
-8.06938
-8.06469
-8.05132
-8.04657
-8.04514
-8.04308
-8.04268
-8.04362
-8.04437
-8.0445
-8.04374
-8.04018
-8.0371
-8.03463
-8.03318
-8.03214
-8.03146
-8.03096
-8.0306
-8.03031
-8.03002
-8.02974
-8.02951
-8.02931
-8.02917
-8.02908
-8.02901
-8.02894
-8.02879
-8.02855
-8.02823
-8.0278
-8.02725
-8.02673
-8.07432
-8.0516
-8.03471
-8.03195
-8.03487
-8.03287
-8.03327
-8.03174
-8.0321
-8.03343
-8.03403
-8.03487
-8.03865
-8.03861
-8.03845
-8.03697
-8.03542
-8.03366
-8.03221
-8.03117
-8.03052
-8.03003
-8.02973
-8.02944
-8.02919
-8.02902
-8.02889
-8.02882
-8.02878
-8.02872
-8.02865
-8.02852
-8.02832
-8.02805
-8.02771
-8.02731
-8.02684
-8.13442
-8.09981
-8.12257
-8.11109
-8.08683
-8.06184
-8.0519
-8.04774
-8.04428
-8.04293
-8.04444
-8.05255
-8.05693
-8.05589
-8.04938
-8.04238
-8.03694
-8.03381
-8.03187
-8.03081
-8.03005
-8.02949
-8.02918
-8.02897
-8.02872
-8.02855
-8.0285
-8.02848
-8.02847
-8.02844
-8.02836
-8.02822
-8.02797
-8.02769
-8.02736
-8.02698
-8.0266
-7.91475
-7.92469
-8.01464
-8.04745
-8.04728
-8.02796
-8.02537
-8.02132
-8.02415
-8.02828
-8.0338
-8.042
-8.05052
-8.05175
-8.04651
-8.04035
-8.03598
-8.03308
-8.03121
-8.03003
-8.02937
-8.02881
-8.02858
-8.02856
-8.02824
-8.02805
-8.02807
-8.02818
-8.02823
-8.02823
-8.02816
-8.02805
-8.0278
-8.02756
-8.02727
-8.02695
-8.02661
-8.26183
-8.28594
-8.41114
-8.27804
-8.15382
-8.08828
-8.05849
-8.04075
-8.03994
-8.03497
-8.03348
-8.05459
-8.08327
-8.08592
-8.06348
-8.04542
-8.03599
-8.03211
-8.03035
-8.02959
-8.02936
-8.02874
-8.02817
-8.0286
-8.02833
-8.02748
-8.02785
-8.02791
-8.02808
-8.0281
-8.02807
-8.02796
-8.02765
-8.02743
-8.02714
-8.02683
-8.02652
-7.71897
-7.85437
-7.9859
-8.02993
-8.02214
-7.96985
-7.94703
-7.97123
-7.99401
-8.00665
-8.01763
-8.04149
-8.06502
-8.0683
-8.05368
-8.03869
-8.03234
-8.03075
-8.02933
-8.02866
-8.02844
-8.02808
-8.02814
-8.02912
-8.0284
-8.02705
-8.02721
-8.02777
-8.02801
-8.02809
-8.02804
-8.02792
-8.02759
-8.02736
-8.02711
-8.0268
-8.02651
-7.71556
-7.84156
-8.09673
-8.15649
-8.01983
-8.02214
-8.02169
-8.01508
-8.01775
-8.01827
-8.01959
-8.02121
-8.02226
-8.02294
-8.02345
-8.02413
-8.02519
-8.0269
-8.02985
-8.03264
-8.03367
-8.03372
-8.03432
-8.03476
-8.03408
-8.03254
-8.03099
-8.03046
-8.03042
-8.0304
-8.03167
-8.03274
-8.03191
-8.03194
-8.03186
-8.02821
-8.02488
-8.02449
-8.72261
-8.57499
-8.45767
-8.29794
-8.10601
-8.06309
-8.04773
-8.03069
-8.0266
-8.02414
-8.02355
-8.02452
-8.02561
-8.02627
-8.02719
-8.02778
-8.02905
-8.03034
-8.03304
-8.03546
-8.03594
-8.03554
-8.03561
-8.03571
-8.03496
-8.03307
-8.03125
-8.03079
-8.0305
-8.03029
-8.03171
-8.03235
-8.03072
-8.03128
-8.03405
-8.03122
-8.02676
-8.0256
-8.16822
-8.15465
-8.16967
-8.06963
-8.05468
-8.0369
-8.03956
-8.03051
-8.03167
-8.02877
-8.02928
-8.02848
-8.02891
-8.02878
-8.02935
-8.02903
-8.02983
-8.03077
-8.03226
-8.03348
-8.03395
-8.03402
-8.03395
-8.0337
-8.033
-8.03193
-8.03096
-8.03051
-8.03033
-8.03043
-8.03119
-8.03149
-8.03102
-8.03061
-8.02995
-8.02838
-8.02672
-8.25027
-8.16211
-8.17971
-8.10625
-8.08304
-8.05737
-8.04553
-8.03632
-8.03133
-8.02896
-8.02802
-8.02862
-8.02942
-8.03067
-8.03138
-8.03175
-8.03197
-8.03232
-8.03292
-8.03335
-8.03338
-8.0333
-8.03308
-8.03274
-8.03212
-8.03134
-8.03064
-8.03026
-8.03008
-8.03012
-8.03045
-8.03049
-8.03025
-8.03026
-8.03011
-8.02893
-8.02751
-8.08158
-8.1098
-8.08702
-8.05838
-8.05426
-8.04586
-8.0423
-8.0401
-8.03767
-8.0369
-8.03627
-8.0362
-8.03577
-8.03447
-8.03382
-8.03244
-8.03229
-8.03193
-8.03201
-8.03201
-8.032
-8.03188
-8.03169
-8.03141
-8.03102
-8.03059
-8.03019
-8.02992
-8.02979
-8.02979
-8.02987
-8.02979
-8.02954
-8.02915
-8.02857
-8.02771
-8.02685
-8.02609
-8.10413
-8.11192
-8.09688
-8.07235
-8.06432
-8.04626
-8.04078
-8.03588
-8.0332
-8.03167
-8.03219
-8.03213
-8.03324
-8.03387
-8.03471
-8.03458
-8.03383
-8.03312
-8.03253
-8.03208
-8.0317
-8.0314
-8.03106
-8.03075
-8.03038
-8.03004
-8.02976
-8.02956
-8.02946
-8.02942
-8.0294
-8.02932
-8.02915
-8.0289
-8.02849
-8.02788
-8.02715
-8.02648
-8.10597
-8.10148
-8.08246
-8.06639
-8.05989
-8.04988
-8.04567
-8.04472
-8.04286
-8.04255
-8.04316
-8.04402
-8.04439
-8.04344
-8.04012
-8.03697
-8.03461
-8.03314
-8.03209
-8.03141
-8.03091
-8.03055
-8.03025
-8.02996
-8.02969
-8.02946
-8.02927
-8.02914
-8.02906
-8.02899
-8.02891
-8.02877
-8.02852
-8.02819
-8.02777
-8.02723
-8.02671
-8.06768
-8.04631
-8.04262
-8.03759
-8.03731
-8.03483
-8.03365
-8.03219
-8.03198
-8.03334
-8.03451
-8.03594
-8.03938
-8.0392
-8.03876
-8.03711
-8.03537
-8.03356
-8.03208
-8.03107
-8.03041
-8.02995
-8.02964
-8.02937
-8.02913
-8.02897
-8.02886
-8.02879
-8.02875
-8.0287
-8.02862
-8.02851
-8.02829
-8.02803
-8.02769
-8.02728
-8.02683
-8.15093
-8.12135
-8.13376
-8.10443
-8.07544
-8.05501
-8.04819
-8.04627
-8.04398
-8.04344
-8.04526
-8.05261
-8.05714
-8.05611
-8.04936
-8.04224
-8.03676
-8.03362
-8.03168
-8.03064
-8.02991
-8.02939
-8.02909
-8.02889
-8.02866
-8.02852
-8.02848
-8.02847
-8.02847
-8.02844
-8.02836
-8.02823
-8.02796
-8.02768
-8.02735
-8.02697
-8.02659
-7.95693
-7.9565
-8.01037
-8.0366
-8.03393
-8.02067
-8.02141
-8.02036
-8.02477
-8.0295
-8.03524
-8.04343
-8.05223
-8.05277
-8.04716
-8.04061
-8.03588
-8.03281
-8.03094
-8.02982
-8.02921
-8.02867
-8.02854
-8.02851
-8.02818
-8.02806
-8.02809
-8.02818
-8.02822
-8.02822
-8.02815
-8.02805
-8.02778
-8.02754
-8.02725
-8.02693
-8.0266
-8.32594
-8.39521
-8.42449
-8.22535
-8.11266
-8.0752
-8.04865
-8.03899
-8.04036
-8.03706
-8.03586
-8.05549
-8.08399
-8.08741
-8.06377
-8.04533
-8.03562
-8.03163
-8.0299
-8.0293
-8.02916
-8.0286
-8.02812
-8.02845
-8.02804
-8.02757
-8.02789
-8.02794
-8.0281
-8.02813
-8.0281
-8.028
-8.02765
-8.02741
-8.02714
-8.02681
-8.02651
-7.7387
-7.92196
-8.0435
-8.02487
-7.99469
-7.95531
-7.95189
-7.97679
-7.99824
-8.01073
-8.02115
-8.04348
-8.06691
-8.06991
-8.05476
-8.03913
-8.03215
-8.0302
-8.02884
-8.02829
-8.02825
-8.02791
-8.02833
-8.02928
-8.0284
-8.02731
-8.02759
-8.02788
-8.02811
-8.02816
-8.02812
-8.02798
-8.0276
-8.02734
-8.0271
-8.02678
-8.0265
-7.91435
-7.88923
-8.10233
-8.10743
-8.00759
-8.00589
-8.0173
-8.01603
-8.01895
-8.01952
-8.02057
-8.0218
-8.02285
-8.02351
-8.02418
-8.02491
-8.02601
-8.02773
-8.03063
-8.03324
-8.03406
-8.03404
-8.03458
-8.03483
-8.03401
-8.03241
-8.03088
-8.03044
-8.03036
-8.03029
-8.0317
-8.03268
-8.03171
-8.03191
-8.03167
-8.02787
-8.02466
-8.02434
-8.6092
-8.46833
-8.45994
-8.26007
-8.08391
-8.0449
-8.0394
-8.02783
-8.02593
-8.02426
-8.02414
-8.02507
-8.02615
-8.02683
-8.02781
-8.02844
-8.02965
-8.031
-8.03364
-8.03586
-8.03618
-8.03573
-8.03573
-8.03566
-8.03481
-8.03285
-8.03111
-8.03075
-8.03037
-8.03022
-8.0318
-8.03227
-8.03052
-8.03142
-8.03408
-8.03076
-8.02642
-8.02532
-8.00583
-8.14209
-8.04727
-8.07351
-8.0345
-8.03482
-8.03576
-8.03034
-8.03096
-8.02876
-8.02912
-8.02842
-8.02893
-8.02878
-8.02952
-8.02944
-8.03034
-8.03126
-8.03271
-8.03383
-8.03418
-8.03417
-8.03403
-8.0337
-8.03293
-8.03181
-8.03085
-8.03043
-8.03022
-8.03032
-8.03115
-8.0314
-8.03088
-8.03046
-8.02975
-8.02813
-8.0265
-8.16585
-8.16379
-8.17012
-8.10011
-8.07492
-8.05253
-8.04164
-8.03466
-8.03064
-8.02891
-8.02839
-8.02906
-8.03009
-8.03109
-8.0318
-8.03189
-8.03225
-8.03255
-8.03312
-8.03351
-8.03351
-8.03338
-8.03311
-8.03272
-8.03206
-8.03126
-8.03057
-8.0302
-8.03001
-8.03008
-8.03042
-8.03044
-8.03018
-8.03022
-8.03008
-8.0288
-8.0274
-8.0326
-8.07826
-8.05398
-8.05854
-8.0487
-8.04419
-8.04124
-8.03917
-8.03714
-8.03649
-8.03603
-8.0359
-8.03564
-8.03424
-8.03374
-8.03255
-8.0324
-8.03209
-8.03212
-8.03211
-8.03206
-8.0319
-8.03168
-8.03138
-8.03097
-8.03053
-8.03013
-8.02987
-8.02974
-8.02975
-8.02983
-8.02975
-8.02948
-8.02909
-8.0285
-8.02763
-8.02679
-8.02608
-8.07636
-8.093
-8.08829
-8.06903
-8.05731
-8.04402
-8.03881
-8.03497
-8.03292
-8.03186
-8.03237
-8.03259
-8.03359
-8.03428
-8.03493
-8.03466
-8.03385
-8.0331
-8.03249
-8.03204
-8.03164
-8.03133
-8.031
-8.03067
-8.03031
-8.02998
-8.0297
-8.02951
-8.02941
-8.02938
-8.02937
-8.02928
-8.0291
-8.02886
-8.02845
-8.02783
-8.02712
-8.02647
-8.08468
-8.08651
-8.07388
-8.06284
-8.05445
-8.04778
-8.04465
-8.04421
-8.04264
-8.04248
-8.04292
-8.04384
-8.04428
-8.04324
-8.04004
-8.03688
-8.03457
-8.03308
-8.03203
-8.03134
-8.03084
-8.03048
-8.03017
-8.02989
-8.02963
-8.02941
-8.02923
-8.0291
-8.02902
-8.02896
-8.02889
-8.02875
-8.02849
-8.02816
-8.02773
-8.02721
-8.02669
-8.04391
-8.04039
-8.04219
-8.03888
-8.0353
-8.03122
-8.03053
-8.03083
-8.03155
-8.03312
-8.03481
-8.03703
-8.0401
-8.03979
-8.03904
-8.03724
-8.03531
-8.03343
-8.03192
-8.03093
-8.03027
-8.02983
-8.02953
-8.02927
-8.02905
-8.02891
-8.02881
-8.02876
-8.02872
-8.02867
-8.0286
-8.02848
-8.02827
-8.028
-8.02766
-8.02725
-8.02681
-8.15601
-8.13096
-8.1272
-8.09073
-8.06178
-8.04867
-8.04488
-8.04506
-8.04398
-8.04404
-8.04613
-8.05299
-8.05755
-8.05639
-8.04932
-8.04206
-8.03657
-8.03339
-8.03145
-8.03041
-8.02973
-8.02926
-8.02897
-8.02877
-8.02858
-8.02848
-8.02846
-8.02847
-8.02847
-8.02844
-8.02836
-8.02823
-8.02795
-8.02766
-8.02733
-8.02695
-8.02658
-7.98685
-7.9904
-8.01028
-8.0265
-8.02188
-8.01497
-8.01784
-8.01952
-8.02473
-8.02997
-8.03598
-8.04497
-8.05371
-8.05329
-8.04759
-8.04078
-8.03572
-8.03247
-8.03058
-8.02952
-8.02897
-8.02851
-8.02844
-8.02838
-8.02811
-8.02805
-8.0281
-8.02818
-8.02822
-8.0282
-8.02813
-8.02804
-8.02777
-8.02752
-8.02724
-8.02691
-8.02659
-8.38411
-8.46359
-8.36269
-8.15164
-8.07785
-8.0613
-8.03926
-8.03707
-8.04117
-8.03913
-8.03833
-8.05681
-8.08503
-8.08901
-8.06363
-8.04497
-8.03519
-8.03105
-8.02927
-8.02881
-8.02881
-8.02839
-8.028
-8.0282
-8.02783
-8.02763
-8.02789
-8.02796
-8.02812
-8.02816
-8.02815
-8.02806
-8.02765
-8.02739
-8.02713
-8.02679
-8.0265
-7.83504
-7.99069
-8.01218
-7.98576
-7.96712
-7.94828
-7.95744
-7.98209
-8.00268
-8.01509
-8.0251
-8.04604
-8.069
-8.07136
-8.05538
-8.03929
-8.03189
-8.02948
-8.02818
-8.02775
-8.02792
-8.02762
-8.02817
-8.02902
-8.02845
-8.02744
-8.02783
-8.02794
-8.02819
-8.02824
-8.02821
-8.02807
-8.02767
-8.0273
-8.02709
-8.02676
-8.02649
-7.97229
-7.96553
-8.07563
-8.05726
-7.99073
-8.00281
-8.01464
-8.01662
-8.01962
-8.02041
-8.02138
-8.02242
-8.02349
-8.0242
-8.02501
-8.0258
-8.02693
-8.02869
-8.03149
-8.03387
-8.03443
-8.03434
-8.03478
-8.03481
-8.03388
-8.03223
-8.03075
-8.03038
-8.03024
-8.03016
-8.03168
-8.03258
-8.03155
-8.03188
-8.03153
-8.02767
-8.02455
-8.02424
-8.5236
-8.46007
-8.47089
-8.19594
-8.05389
-8.03868
-8.03287
-8.02614
-8.0254
-8.02452
-8.0248
-8.02569
-8.02678
-8.02752
-8.02853
-8.0292
-8.03035
-8.03179
-8.03428
-8.03625
-8.03637
-8.03588
-8.03578
-8.03554
-8.03458
-8.0326
-8.03095
-8.03066
-8.03021
-8.03014
-8.03182
-8.03217
-8.03041
-8.03149
-8.03391
-8.03047
-8.02627
-8.0252
-8.11335
-8.06775
-8.11716
-8.05056
-8.03946
-8.02984
-8.03334
-8.02956
-8.03028
-8.02874
-8.02908
-8.02858
-8.02912
-8.02924
-8.02988
-8.03002
-8.03087
-8.0318
-8.03316
-8.03415
-8.03437
-8.03427
-8.03405
-8.03362
-8.03281
-8.03166
-8.03072
-8.03034
-8.03009
-8.03021
-8.03109
-8.03131
-8.03076
-8.03035
-8.02963
-8.02799
-8.02639
-8.19733
-8.15856
-8.15328
-8.09386
-8.06693
-8.04842
-8.03854
-8.03326
-8.03017
-8.02903
-8.02887
-8.02964
-8.03076
-8.03161
-8.03215
-8.03225
-8.03252
-8.03283
-8.03333
-8.03366
-8.03361
-8.03342
-8.03311
-8.03266
-8.03197
-8.03115
-8.03049