/*--------------------------------*- C++ -*----------------------------------*\
| =========                 |                                                 |
| \\      /  F ield         | OpenFOAM: The Open Source CFD Toolbox           |
|  \\    /   O peration     | Version:  2.3.1                                 |
|   \\  /    A nd           | Web:      www.OpenFOAM.org                      |
|    \\/     M anipulation  |                                                 |
\*---------------------------------------------------------------------------*/
FoamFile
{
    version     2.0;
    format      ascii;
    class       surfaceScalarField;
    location    "10";
    object      phi;
}
// * * * * * * * * * * * * * * * * * * * * * * * * * * * * * * * * * * * * * //

dimensions      [0 3 -1 0 0 0 0];

internalField   nonuniform List<scalar> 
108164
(
0.000150463
-0.00101207
4.39379e-05
0.000116792
-0.000573896
0.000607567
0.000230554
6.89205e-05
-0.000182682
0.000142459
-8.19038e-06
9.62851e-05
0.000192335
-0.000113965
6.40885e-05
0.00023283
-5.76743e-05
1.71798e-05
0.000167178
-5.55319e-06
7.12053e-05
7.00614e-05
1.11087e-05
8.60075e-05
3.16721e-05
-5.06067e-06
4.34499e-05
1.40969e-05
-1.27605e-06
1.88513e-05
7.38403e-06
-1.64764e-05
2.31893e-05
3.32464e-06
-1.23594e-05
1.64188e-05
5.74543e-06
-1.92963e-05
1.68755e-05
6.8857e-06
-1.62254e-05
1.50852e-05
1.07169e-05
-2.03102e-05
1.64791e-05
1.65212e-05
-1.60992e-05
1.02949e-05
2.28008e-05
-1.66026e-05
1.03231e-05
2.96365e-05
-1.47425e-05
7.9067e-06
3.7234e-05
-1.42512e-05
6.6537e-06
4.65283e-05
-1.29044e-05
3.61018e-06
5.50553e-05
-9.96022e-06
1.43315e-06
5.78428e-05
-7.81461e-06
5.02715e-06
5.52946e-05
-7.75043e-06
1.02986e-05
5.76896e-05
-8.44494e-06
6.04993e-06
6.34004e-05
-6.5073e-06
7.96483e-07
6.38396e-05
-4.07756e-06
3.63841e-06
6.25393e-05
-3.43861e-06
4.73891e-06
6.08337e-05
-3.53765e-06
5.2432e-06
5.79478e-05
-4.35281e-06
7.23874e-06
6.07996e-05
-5.06609e-06
2.21428e-06
6.40598e-05
-4.30452e-06
1.04434e-06
6.02828e-05
-3.78763e-06
7.56463e-06
6.05585e-05
-3.84563e-06
3.56987e-06
6.47779e-05
-1.50361e-06
-2.71581e-06
6.0423e-05
9.71484e-07
3.38344e-06
5.52192e-05
2.05539e-06
3.14847e-06
5.741e-05
6.47813e-06
-8.66893e-06
1.05932e-05
-1.11371e-05
-0.000526195
0.00158331
-0.00148131
-0.000179591
-0.000378507
-0.000541994
6.78836e-05
6.65622e-05
-0.000245116
-0.000147397
0.000169107
3.79832e-05
-2.59092e-05
-8.11723e-05
-0.00015428
-7.71803e-05
-1.63196e-05
9.91638e-06
-7.39307e-05
8.58179e-06
-1.73846e-05
-4.08151e-05
-8.41776e-06
-1.35891e-05
-3.52509e-05
-1.59888e-05
5.36393e-06
-3.17485e-05
-5.3606e-06
5.82149e-07
-2.35481e-05
-2.1239e-05
-3.43783e-06
-2.66559e-05
-1.39561e-05
4.70455e-06
-2.23382e-05
-2.22662e-05
-1.34789e-06
-2.64447e-05
-1.89356e-05
6.81663e-06
-3.04062e-05
-2.63045e-05
9.95568e-06
-3.57735e-05
-2.244e-05
1.17081e-05
-3.30581e-05
-2.0957e-05
1.63895e-06
-3.12402e-05
-1.87127e-05
2.15243e-06
-3.05506e-05
-1.66169e-05
1.67613e-06
-2.66817e-05
-1.6967e-05
1.93759e-07
-2.29108e-05
-1.40637e-05
3.32542e-07
-1.8093e-05
-1.18835e-05
-7.4889e-07
-1.49818e-05
-1.02448e-05
-6.16765e-07
-1.19708e-05
-9.84155e-06
-1.61447e-06
-8.11681e-06
-8.25682e-06
-2.10442e-06
-3.87978e-06
-6.21063e-06
-2.10396e-06
3.99921e-09
-5.79839e-06
-1.524e-06
3.38842e-06
-5.54777e-06
-1.3743e-06
6.31593e-06
-5.62209e-06
-1.65822e-06
8.91401e-06
-5.56072e-06
-2.10346e-06
1.12958e-05
-4.89425e-06
-1.79206e-06
1.39892e-05
-3.26307e-06
-3.21792e-06
1.66089e-05
-1.05157e-06
-5.41383e-06
1.74286e-05
1.8742e-06
-4.19749e-06
1.71818e-05
5.80886e-06
-4.5906e-06
2.18855e-05
1.0331e-05
-1.29792e-05
3.39187e-05
1.29692e-05
-1.85242e-05
-1.03779e-05
6.97173e-05
0.00156779
-0.000211166
-5.14296e-05
0.000264937
-0.000522297
-0.000215699
1.54986e-05
0.000215333
-7.48393e-05
0.00013225
-0.000104002
-4.99623e-05
-2.62329e-05
-7.98165e-05
-5.42263e-05
3.60906e-06
-1.56646e-05
-3.42642e-05
1.26644e-05
-2.40447e-05
-2.63467e-05
-3.87674e-06
-1.24586e-05
-1.41626e-05
-5.30889e-06
-2.2864e-05
-9.52987e-06
1.56849e-06
-1.15618e-05
-6.1036e-06
-2.88844e-06
-2.17768e-05
2.73336e-06
-4.9086e-06
-1.78844e-05
5.88408e-06
-5.78841e-06
-1.96285e-05
1.49709e-05
-6.62774e-06
-2.13946e-05
1.78513e-05
-1.83725e-05
-1.08124e-05
9.73669e-07
-1.26163e-05
7.0539e-06
-1.28211e-05
-1.4907e-05
7.74477e-06
-1.78205e-05
-1.61563e-05
2.44296e-06
-2.25816e-05
-1.30394e-05
1.18354e-06
-1.97141e-05
-1.76201e-05
-2.21449e-06
-2.00056e-05
-1.26428e-05
-1.12933e-06
-1.89162e-05
-1.05372e-05
-2.43568e-06
-1.64374e-05
-1.16387e-05
-1.08501e-06
-1.39687e-05
-9.56687e-06
-2.74335e-06
-1.11866e-05
-8.30008e-06
-2.73881e-06
-7.92651e-06
-5.14259e-06
-4.32818e-06
-5.02549e-06
-5.82101e-06
-2.8784e-06
-2.47233e-06
-4.65239e-06
-3.44853e-06
-3.63528e-07
-4.06357e-06
-3.66733e-06
1.4708e-06
-3.76135e-06
-3.6337e-06
3.18715e-06
-2.57797e-06
-4.03263e-06
5.26931e-06
-9.7718e-07
-4.36806e-06
7.7949e-06
1.08795e-06
-4.66511e-06
1.07414e-05
3.43554e-06
-4.50785e-06
1.51057e-05
6.04279e-06
-4.59817e-06
2.14737e-05
8.47733e-06
-4.51436e-06
1.00871e-05
-8.53779e-07
7.69497e-05
0.00147038
-0.000215392
9.39649e-05
0.000379153
-0.000131231
-4.61268e-05
0.000199379
-4.37884e-05
-2.43065e-05
1.86401e-05
9.17892e-05
1.56629e-05
-2.02185e-05
-4.59839e-05
2.17362e-06
4.99822e-05
-3.28838e-05
-3.29019e-05
2.69516e-05
2.07884e-05
-4.9721e-05
2.43162e-05
-1.13738e-05
-4.25847e-05
-1.90974e-05
6.65229e-06
-4.96371e-05
1.74686e-05
-8.84774e-06
-4.9426e-05
-1.00196e-05
6.92009e-06
-4.66485e-05
4.01687e-06
-1.17029e-05
-4.85246e-05
-7.34171e-06
3.42937e-06
-4.60538e-05
3.50428e-06
-1.26028e-05
-3.92704e-05
-1.45978e-05
-1.0558e-05
-3.75725e-05
-1.81557e-06
-1.24987e-05
-3.15286e-05
-1.17514e-05
-9.19946e-06
-3.05253e-05
-1.38181e-05
-3.34142e-06
-2.99494e-05
-9.8933e-06
-3.72202e-06
-2.46459e-05
-1.43194e-05
-8.60414e-06
-2.62394e-05
-1.14312e-05
3.81832e-07
-2.39971e-05
-9.53403e-06
-3.24547e-06
-2.1295e-05
-1.07363e-05
-3.60448e-06
-1.91331e-05
-8.66365e-06
-3.0651e-06
-1.66141e-05
-8.43735e-06
-2.38179e-06
-1.3248e-05
-4.84247e-06
-3.6662e-06
-1.10225e-05
-6.72643e-06
-1.32005e-06
-8.4183e-06
-4.64647e-06
-2.61013e-06
-6.07875e-06
-3.81727e-06
-2.58585e-06
-4.17912e-06
-3.92093e-06
-1.74005e-06
-2.48983e-06
-1.71324e-06
-2.55401e-06
-8.08833e-07
-9.60248e-07
-1.69793e-06
6.98339e-07
1.23365e-06
-1.65287e-06
1.87658e-06
3.01358e-06
-7.56274e-07
2.63456e-06
5.00662e-06
2.78193e-07
2.97099e-06
6.867e-06
1.27389e-06
8.35024e-06
2.95794e-06
8.88451e-05
0.00135419
-0.000130945
0.000133426
0.000504707
-0.000170135
4.39332e-05
0.000249789
3.90832e-05
-1.40783e-05
3.6379e-05
4.02725e-05
1.33037e-05
1.50261e-05
-6.26266e-05
2.26738e-05
5.1608e-05
-1.09959e-05
-1.20107e-05
1.88146e-06
5.97547e-05
-2.31643e-06
4.23369e-05
-2.7715e-05
-1.24647e-05
-5.43096e-07
-8.40608e-06
-1.05369e-05
1.25518e-05
2.98903e-06
-4.04885e-06
-6.49628e-06
-1.00114e-05
-1.59289e-05
-3.21145e-06
1.91083e-05
-1.81074e-05
1.56597e-06
-6.72919e-06
-2.21435e-05
-1.3979e-05
2.15194e-05
-2.19854e-05
-5.12398e-06
-9.6318e-06
-2.41451e-05
-1.57705e-05
1.61146e-05
-2.37716e-05
-8.97085e-06
-3.15404e-06
-2.36468e-05
-1.42009e-05
2.5797e-07
-2.15441e-05
-1.18834e-05
-1.12659e-07
-2.4938e-05
-1.25007e-05
1.57528e-06
-2.29279e-05
-1.21931e-05
-1.24824e-06
-2.16664e-05
-1.08811e-05
8.56057e-08
-2.12182e-05
-9.56137e-06
-1.62312e-06
-2.09473e-05
-8.94183e-06
7.31413e-09
-1.90651e-05
-9.67785e-06
-6.41717e-07
-1.76156e-05
-5.68197e-06
-6.10025e-07
-1.68022e-05
-6.84385e-06
-6.95979e-07
-1.45748e-05
-6.6283e-06
-2.45573e-07
-1.37124e-05
-3.64213e-06
-1.03757e-06
-1.24169e-05
-5.59997e-06
3.83625e-07
-1.10518e-05
-2.09452e-06
-9.83895e-07
-1.01791e-05
-2.58438e-06
7.51412e-07
-8.78334e-06
-1.13821e-07
-4.82422e-08
-7.74003e-06
7.93099e-07
1.17716e-06
-6.52159e-06
2.61206e-06
1.17611e-06
-5.42976e-06
3.85846e-06
1.91671e-06
-4.17345e-06
4.82226e-06
2.27167e-06
5.03821e-06
2.4122e-06
0.000125948
0.00126017
-0.000127522
0.000144226
0.000593899
-0.000107469
3.42223e-05
0.000261207
9.85847e-05
-2.46646e-05
9.88824e-05
-3.61649e-06
-2.5099e-05
6.41529e-05
-4.86924e-05
-3.8892e-05
2.86389e-05
3.67622e-05
-3.81767e-05
-4.33113e-05
4.44774e-05
-1.18649e-05
3.01622e-05
-1.41371e-05
-2.42112e-05
2.26018e-05
-1.07985e-05
-3.22308e-05
9.20113e-07
1.96512e-05
-1.84807e-05
6.94038e-06
-2.71868e-05
-2.45747e-05
1.36696e-06
1.51563e-06
-2.84654e-05
2.23884e-05
-1.69318e-05
-2.78553e-05
-1.38394e-05
-7.49705e-07
-3.0755e-05
8.66925e-06
-1.08935e-05
-2.82554e-05
-1.40486e-05
-4.2216e-06
-2.9131e-05
-5.54294e-06
-2.55232e-06
-2.77353e-05
-1.17204e-05
-3.87627e-06
-2.52403e-05
-1.05155e-05
-3.8628e-06
-2.50136e-05
-1.06982e-05
-2.02919e-06
-2.37348e-05
-1.1181e-05
-2.29099e-06
-2.19215e-05
-8.78005e-06
-3.91435e-06
-2.28493e-05
-8.62605e-06
-7.45208e-09
-2.02214e-05
-9.2375e-06
-2.33222e-06
-2.00926e-05
-8.10877e-06
-1.69797e-06
-1.98891e-05
-5.66107e-06
-2.24351e-07
-1.84954e-05
-6.15288e-06
-2.08469e-06
-1.81012e-05
-6.65279e-06
-3.69659e-07
-1.76588e-05
-3.35351e-06
-7.31087e-07
-1.67304e-05
-5.8173e-06
-7.1105e-07
-1.60515e-05
-2.7351e-06
-3.83499e-08
-1.523e-05
-3.21096e-06
-1.94859e-07
-1.4188e-05
-1.5752e-06
4.19304e-07
-1.29151e-05
-7.9323e-07
3.13457e-07
-1.16594e-05
3.70521e-07
9.85893e-07
-9.79932e-06
1.14136e-06
8.56982e-07
-7.91236e-06
1.80486e-06
1.13044e-06
9.80838e-07
7.27888e-05
0.0012018
-0.000126829
0.000111358
0.000591687
-3.63576e-05
4.68566e-05
0.000268547
5.71616e-05
2.08442e-05
0.000112969
1.1926e-05
-4.037e-06
5.28285e-05
3.62057e-05
-3.6556e-05
1.74585e-05
4.36994e-05
-5.57977e-05
1.06786e-05
-3.47482e-05
-5.99977e-05
3.46801e-05
-3.17856e-07
-5.33704e-05
2.95832e-05
-1.36087e-05
-5.23425e-05
2.55826e-05
-2.56905e-05
-4.93419e-05
2.63817e-05
-2.24419e-05
-3.89125e-05
1.31187e-05
-2.21811e-05
-3.64005e-05
7.79573e-06
1.20807e-05
-3.71454e-05
-1.369e-06
-1.17255e-05
-3.0017e-05
-7.51695e-06
9.05781e-06
-2.61171e-05
-8.23918e-06
-9.70925e-06
-2.84977e-05
-8.4932e-06
5.33088e-06
-2.41908e-05
-1.29448e-05
-3.08248e-06
-2.30406e-05
-1.03185e-05
-1.34723e-06
-2.29242e-05
-9.75457e-06
-1.06011e-06
-2.31562e-05
-9.867e-06
-1.08194e-06
-2.06909e-05
-8.97123e-06
-2.27413e-06
-2.02475e-05
-7.72159e-06
-1.34787e-06
-1.91131e-05
-9.26684e-06
-1.10506e-06
-1.94461e-05
-6.31205e-06
-1.46374e-06
-1.84437e-05
-4.94068e-06
-1.72277e-06
-1.77031e-05
-5.22677e-06
-1.66675e-06
-1.82419e-05
-4.97867e-06
-1.13533e-06
-1.72385e-05
-2.84475e-06
-1.51208e-06
-1.72173e-05
-4.41001e-06
-1.42848e-06
-1.68867e-05
-2.19209e-06
-8.73695e-07
-1.61231e-05
-2.69535e-06
-1.2792e-06
-1.54353e-05
-1.5106e-06
-7.52376e-07
-1.45957e-05
-9.7077e-07
-6.62072e-07
-1.33162e-05
-3.14906e-07
-5.94072e-07
-1.21802e-05
3.16096e-07
-3.10683e-07
6.76156e-07
-3.19091e-07
6.05776e-05
0.0011598
-0.000132184
0.000132491
0.000525281
-5.50642e-06
7.26249e-05
0.000276624
5.17892e-05
2.34003e-05
0.000153562
8.63149e-06
-1.36045e-06
8.0254e-05
-2.66478e-06
2.39245e-06
1.53552e-05
-1.64966e-06
4.03965e-06
4.50443e-05
-3.60128e-05
1.47958e-05
1.08571e-05
1.30667e-05
2.8224e-05
4.34661e-05
-2.7311e-05
3.81093e-05
3.18732e-05
-1.6176e-05
1.28721e-05
3.94166e-05
1.22023e-05
-1.53609e-05
1.38365e-05
2.75152e-05
-2.24768e-05
8.92958e-06
5.98208e-06
-3.02845e-05
4.14358e-06
2.29504e-06
-2.96414e-05
-7.18274e-06
-9.77251e-07
-2.79693e-05
-8.05809e-06
-1.85323e-06
-2.90965e-05
-7.52449e-06
1.58556e-07
-2.67198e-05
-1.23292e-05
-2.99237e-06
-2.32718e-05
-1.03797e-05
-3.38678e-06
-2.44564e-05
-9.93274e-06
1.36279e-06
-2.21813e-05
-8.86733e-06
-3.27485e-06
-2.10773e-05
-8.61322e-06
-1.46195e-06
-1.94005e-05
-7.97005e-06
-1.42834e-06
-1.82218e-05
-1.03582e-05
-8.73528e-08
-1.90409e-05
-4.64739e-06
-8.45529e-07
-1.75979e-05
-4.49748e-06
-1.88619e-06
-1.74245e-05
-4.21182e-06
-1.18842e-06
-1.73567e-05
-4.30675e-06
-7.39711e-07
-1.69035e-05
-1.36427e-06
-1.93369e-06
-1.65943e-05
-3.87329e-06
-8.45896e-07
-1.62964e-05
-1.01639e-06
-1.47361e-06
-1.55135e-05
-2.35449e-06
-1.12375e-06
-1.50878e-05
-8.44069e-07
-1.09227e-06
-1.40881e-05
-9.11146e-07
-1.05924e-06
-1.33952e-05
-2.24423e-07
-7.8347e-07
-1.23359e-05
8.11595e-08
-8.24291e-07
3.341e-07
-6.07792e-07
-4.45413e-06
0.00108608
-2.24212e-05
4.19862e-05
0.000440165
3.86752e-05
2.58445e-05
0.000273943
1.8822e-05
-7.18008e-06
0.000196482
-9.89597e-06
-5.05849e-05
0.000106384
1.72744e-05
-7.25055e-05
3.7548e-05
-2.72121e-07
-6.58397e-05
3.206e-05
6.31854e-06
-5.63433e-05
2.27797e-05
-2.1419e-05
-5.19573e-05
4.06123e-05
-1.53218e-06
-4.54526e-05
2.85605e-05
-3.192e-06
-4.48523e-05
4.02087e-05
-1.39246e-06
-4.46816e-05
3.13975e-05
-1.77316e-05
-3.81831e-05
1.02727e-05
-7.84163e-06
-3.63623e-05
5.93053e-07
1.7297e-06
-3.20457e-05
-1.01804e-05
-1.31888e-06
-2.75119e-05
-1.24801e-05
-1.11732e-07
-2.4455e-05
-1.31112e-05
2.52976e-06
-2.41043e-05
-1.13425e-05
-1.33743e-06
-2.40962e-05
-1.05612e-05
1.73423e-07
-2.19129e-05
-9.78871e-06
-2.32738e-06
-2.21225e-05
-8.85895e-06
2.01285e-07
-2.06866e-05
-6.98578e-06
-3.06337e-06
-1.8282e-05
-8.64664e-06
-1.72807e-06
-1.78993e-05
-1.27014e-05
1.96052e-06
-1.88623e-05
-1.50918e-06
-2.1752e-06
-1.71094e-05
-6.03063e-06
-2.19797e-07
-1.6785e-05
-3.65546e-06
-8.80692e-07
-1.73894e-05
-3.2299e-06
-4.72508e-07
-1.67041e-05
-8.37032e-07
-1.21254e-06
-1.64049e-05
-3.33568e-06
-8.36788e-07
-1.61742e-05
-2.93974e-07
-9.53142e-07
-1.53115e-05
-2.06452e-06
-1.15261e-06
-1.46537e-05
-5.5241e-07
-9.49491e-07
-1.38805e-05
-7.30114e-07
-9.54218e-07
-1.29676e-05
-2.91645e-07
-8.45696e-07
-1.21053e-05
-1.97215e-08
-7.61406e-07
1.26117e-07
-6.96461e-07
4.4978e-05
0.00103021
-3.72295e-05
0.000116343
0.000471321
-0.000102521
0.000132112
0.000349838
-9.16646e-05
8.63106e-05
0.000274366
-3.20818e-05
4.77545e-05
0.000164355
-1.94149e-05
5.82646e-05
6.08175e-05
-3.37796e-05
7.77359e-05
3.8597e-05
-2.60084e-05
7.7819e-05
6.4033e-05
-4.13364e-05
6.90785e-05
7.20616e-05
-2.27087e-05
6.4087e-05
5.72979e-05
-2.37459e-05
5.08431e-05
6.43906e-05
-1.0938e-05
1.31821e-05
5.09399e-05
1.81186e-05
-1.38353e-05
1.974e-05
1.75501e-05
-1.57484e-05
1.09314e-06
1.41303e-06
-1.67562e-05
-1.01484e-05
9.75799e-07
-1.47298e-05
-1.17054e-05
-2.80118e-06
-1.55037e-05
-1.33296e-05
9.92273e-07
-1.89208e-05
-1.08554e-05
2.93008e-06
-1.87483e-05
-1.10779e-05
3.4426e-07
-1.94167e-05
-8.36604e-06
-7.5429e-07
-1.95509e-05
-6.51983e-06
-2.20493e-06
-1.80739e-05
-4.05457e-06
-4.40826e-06
-1.64821e-05
-6.63876e-06
-3.5996e-06
-1.7154e-05
-1.13248e-05
-7.04784e-07
-1.71911e-05
-1.15708e-06
-3.15021e-07
-1.57597e-05
-5.95204e-06
-1.50998e-06
-1.56274e-05
-3.34089e-06
-4.46804e-07
-1.69544e-05
-9.1495e-07
-9.88003e-07
-1.59886e-05
-9.75573e-07
-8.27234e-07
-1.61036e-05
-1.54344e-06
-1.67729e-06
-1.57664e-05
1.86257e-07
-8.17366e-07
-1.49574e-05
-1.288e-06
-1.58552e-06
-1.43511e-05
-1.10566e-08
-1.14772e-06
-1.35794e-05
-3.18858e-07
-1.18296e-06
-1.27748e-05
-6.61547e-08
-1.03008e-06
-1.19959e-05
1.7021e-07
-9.68833e-07
1.60763e-07
-8.4433e-07
6.77697e-05
0.00092159
4.86152e-05
5.91379e-05
0.000415751
6.42024e-05
3.46017e-05
0.000294333
8.00407e-05
3.67456e-05
0.000223537
4.86855e-05
2.18362e-05
0.000143839
3.54257e-05
-1.50826e-05
5.26283e-05
4.51081e-05
-2.41004e-05
3.00451e-05
1.75697e-05
-6.46731e-06
3.55655e-05
1.08344e-05
-4.57814e-07
4.23348e-05
2.37173e-05
3.96013e-07
3.3335e-05
2.31091e-05
-1.12171e-05
4.80279e-05
2.79757e-05
-2.81273e-05
3.96624e-05
2.81877e-05
-2.89673e-05
1.75881e-05
2.99185e-06
-2.53763e-05
-4.3335e-06
1.83568e-06
-1.70019e-05
-1.59464e-05
-2.57644e-06
-4.70515e-06
-1.58164e-05
-8.18567e-06
-1.08148e-06
-7.89261e-06
-9.06067e-06
-3.56804e-06
-4.40102e-06
-3.96783e-06
-9.6751e-06
-5.55714e-06
5.86311e-07
-1.45725e-05
-3.07719e-06
-3.91438e-07
-1.73593e-05
-2.63943e-06
-1.0936e-06
-1.70311e-05
-4.81335e-06
4.30534e-07
-1.3824e-05
-2.18692e-06
-7.6589e-06
-1.82909e-05
-8.12742e-06
1.26953e-06
-1.61285e-05
-4.9165e-06
1.59707e-06
-1.30228e-05
-5.17349e-06
-3.8843e-06
-1.57514e-05
-2.53724e-06
1.92497e-06
-1.6206e-05
-7.25884e-07
2.65593e-07
-1.57532e-05
-7.69416e-07
-6.59026e-07
-1.61348e-05
-7.44351e-07
-4.1741e-07
-1.56875e-05
4.22659e-08
-3.03386e-07
-1.47571e-05
-7.98207e-07
-1.42016e-06
-1.44511e-05
1.00455e-07
-4.17538e-07
-1.32571e-05
-3.33218e-07
-1.17966e-06
-1.27953e-05
1.5343e-08
-5.43259e-07
-1.18214e-05
1.23745e-08
-8.16011e-07
6.61185e-08
-5.92046e-07
0.000149752
0.000539092
0.000209577
0.000355926
0.000219707
0.000284203
0.00023457
0.000208674
0.000231088
0.00014732
0.000180217
0.0001035
0.000137398
7.28638e-05
0.00010788
6.50837e-05
8.79462e-05
6.22689e-05
7.39081e-05
4.73731e-05
8.58552e-05
3.60809e-05
0.000100963
2.45543e-05
9.30862e-05
2.54652e-05
6.70779e-05
2.16749e-05
3.52608e-05
1.58707e-05
1.41437e-05
5.3006e-06
2.33724e-06
3.91388e-06
5.07558e-06
-7.13936e-06
9.17132e-06
-9.65288e-06
1.09502e-05
-4.85611e-06
5.35408e-06
2.95673e-06
-1.09482e-05
1.14889e-05
-1.05726e-05
-2.56254e-06
-1.3778e-05
-4.92194e-06
-1.23554e-05
-6.33912e-06
-9.87094e-06
-7.65795e-06
-1.45066e-05
2.09837e-06
-1.49465e-05
-2.85954e-07
-1.5558e-05
-1.5787e-07
-1.61097e-05
-1.92731e-07
-1.52082e-05
-8.5922e-07
-1.47508e-05
-1.25559e-06
-1.40898e-05
-5.6056e-07
-1.30492e-05
-1.37382e-06
-1.25744e-05
-4.59431e-07
-1.16466e-05
-9.15418e-07
-5.89612e-07
9.93705e-05
-0.00083363
0.000633695
-3.14389e-05
5.55031e-05
0.000682873
-4.97913e-05
-0.000254379
9.00493e-05
6.88847e-05
9.51249e-05
-0.000117516
9.28376e-05
2.36639e-06
3.77692e-05
8.28877e-05
2.50312e-05
2.09856e-06
4.60488e-05
1.95231e-05
8.8521e-05
2.80534e-05
1.99784e-05
8.40245e-05
2.26074e-05
5.6481e-07
4.83312e-05
1.31659e-05
2.14516e-06
2.61475e-05
8.95429e-06
-5.32478e-06
3.27257e-05
6.4929e-06
-6.19952e-06
2.50797e-05
8.47168e-06
-1.01296e-05
2.50264e-05
1.04355e-05
-8.90243e-06
2.20238e-05
1.42397e-05
-1.24239e-05
2.50988e-05
1.99269e-05
-1.36502e-05
1.82578e-05
2.61773e-05
-1.43205e-05
1.83932e-05
3.2725e-05
-1.44997e-05
1.58587e-05
4.00675e-05
-1.40782e-05
1.33894e-05
4.71133e-05
-1.20562e-05
8.62055e-06
5.25601e-05
-9.26421e-06
5.25052e-06
5.49183e-05
-7.51265e-06
1.01816e-05
5.55646e-05
-7.375e-06
1.70273e-05
5.7998e-05
-6.97972e-06
1.05963e-05
6.00414e-05
-4.97474e-06
3.72784e-06
5.94207e-05
-3.05146e-06
7.31061e-06
5.82705e-05
-2.54077e-06
8.42981e-06
5.66358e-05
-3.04292e-06
9.92083e-06
5.61028e-05
-3.74045e-06
1.15122e-05
5.85617e-05
-3.89326e-06
3.64862e-06
5.89947e-05
-3.69817e-06
4.30953e-06
5.78229e-05
-3.68566e-06
1.24221e-05
5.97635e-05
-2.34924e-06
3.9785e-06
5.91788e-05
-1.85949e-07
-1.94518e-06
5.54407e-05
-3.72485e-07
7.49406e-06
5.42963e-05
2.00928e-06
2.28357e-06
5.14876e-05
1.07839e-05
-1.66441e-05
1.37962e-05
-1.78972e-05
-0.000188462
-0.000697822
-0.00117507
-0.000288811
0.000158649
-0.000544792
-0.000257537
-0.000253695
-0.000277074
-0.00011087
0.000112366
-0.000125925
-7.84532e-05
-2.10419e-05
-0.000163289
-7.32471e-05
1.97485e-05
9.99292e-06
-5.64277e-05
7.28363e-06
-2.19644e-05
-3.68833e-05
6.89109e-06
-2.00462e-05
-3.40904e-05
-5.95577e-07
3.73146e-06
-3.46286e-05
4.2254e-06
-9.59976e-07
-3.27546e-05
-7.8879e-06
-2.74866e-06
-3.50891e-05
-4.84942e-06
5.68894e-06
-3.37376e-05
-1.24899e-05
-3.39145e-07
-3.48858e-05
-9.16721e-06
8.22959e-06
-3.14409e-05
-1.53957e-05
9.48263e-06
-2.80549e-05
-1.59734e-05
1.06452e-05
-2.4395e-05
-1.73363e-05
9.94755e-07
-2.1267e-05
-1.69632e-05
1.48804e-06
-1.82762e-05
-1.65871e-05
1.19425e-06
-1.53665e-05
-1.50312e-05
2.59048e-07
-1.15453e-05
-1.33538e-05
6.00925e-07
-7.64973e-06
-1.17714e-05
-3.85688e-07
-4.8151e-06
-1.02424e-05
-5.83966e-07
-2.4541e-06
-9.30506e-06
-1.65013e-06
1.78206e-07
-7.8362e-06
-1.87527e-06
3.08611e-06
-6.31802e-06
-1.74531e-06
6.05306e-06
-5.8081e-06
-1.22362e-06
8.54771e-06
-5.99336e-06
-9.18511e-07
1.08155e-05
-5.9765e-06
-1.68993e-06
1.28295e-05
-5.87883e-06
-2.13194e-06
1.42163e-05
-5.34597e-06
-1.53106e-06
1.56058e-05
-3.95902e-06
-4.33408e-06
1.71439e-05
-1.79628e-06
-7.50481e-06
1.73159e-05
4.62864e-07
-5.01832e-06
1.68973e-05
3.15555e-06
-7.70007e-06
1.96677e-05
6.60243e-06
-2.03428e-05
2.45854e-05
8.95397e-06
-2.1612e-05
-3.84748e-06
-0.000251931
-0.000261992
-0.000283409
-0.00016605
-0.000113372
-0.000336156
-0.000135504
-1.88047e-05
-5.01038e-05
-0.000106075
-2.5723e-05
4.65814e-06
-5.45061e-05
-1.13191e-05
-0.000141108
-5.25806e-05
6.00662e-06
-3.84826e-06
-3.76746e-05
4.34916e-06
-3.60163e-05
-3.86722e-05
2.20625e-06
-6.77611e-06
-3.23792e-05
-1.99922e-06
-2.77533e-05
-3.3892e-05
-2.94688e-07
-5.529e-06
-3.32544e-05
-3.36183e-06
-2.69404e-05
-3.23294e-05
-1.13454e-05
-1.23135e-05
-3.14155e-05
-1.11707e-05
-2.18616e-05
-2.82641e-05
-1.61746e-05
-1.75386e-05
-2.5364e-05
-1.46389e-05
-1.44693e-05
-2.51612e-05
-1.67936e-05
7.6714e-06
-2.5793e-05
-1.28306e-05
3.87091e-06
-2.58083e-05
-1.49368e-05
4.31741e-07
-2.57046e-05
-1.61729e-05
6.65739e-07
-2.59578e-05
-1.4247e-05
-2.74545e-06
-2.40739e-05
-1.40499e-05
-2.31721e-06
-2.22632e-05
-1.25337e-05
-3.48403e-06
-1.99357e-05
-1.08995e-05
-2.75539e-06
-1.77861e-05
-1.03727e-05
-3.82534e-06
-1.5248e-05
-8.82203e-06
-4.29112e-06
-1.26181e-05
-7.5664e-06
-5.70968e-06
-9.95953e-06
-6.77596e-06
-4.56908e-06
-7.81682e-06
-6.69538e-06
-4.88923e-06
-5.9189e-06
-6.13693e-06
-5.40483e-06
-4.36645e-06
-5.77294e-06
-5.29205e-06
-3.02976e-06
-4.89565e-06
-5.81963e-06
-1.37956e-06
-3.5592e-06
-6.41808e-06
6.76539e-07
-1.7437e-06
-6.77379e-06
3.11132e-06
-1.24492e-07
-6.35528e-06
6.25128e-06
1.45075e-06
-6.03333e-06
9.1438e-06
3.49031e-06
-4.29477e-06
5.14427e-06
3.26942e-06
-0.000125205
-3.62701e-05
-0.000330092
-0.000164158
-4.75461e-05
-0.000158104
-0.000105142
-4.1444e-05
-8.01648e-05
-4.49522e-05
-3.78502e-05
4.37267e-05
-5.21499e-05
9.59693e-06
-5.97022e-05
-5.11678e-05
1.33764e-05
-4.12357e-05
-3.93421e-05
-3.03694e-07
1.36155e-05
-3.71074e-05
4.5094e-06
-1.59117e-05
-3.14182e-05
-1.32075e-06
2.8457e-07
-3.00725e-05
2.3107e-06
-1.27988e-05
-2.81634e-05
1.0536e-06
5.95481e-07
-2.6325e-05
-8.18067e-06
-1.67059e-05
-2.59911e-05
-6.21989e-06
-1.85532e-06
-2.85368e-05
-1.30135e-05
-1.32183e-05
-2.99571e-05
-9.21249e-06
-1.45641e-05
-3.08389e-05
-1.41928e-05
-1.42177e-05
-3.18853e-05
-1.12533e-05
-9.73044e-06
-2.85945e-05
-1.31308e-05
-8.43812e-06
-2.91982e-05
-1.40223e-05
-5.269e-06
-2.99176e-05
-1.31111e-05
-9.02061e-06
-2.68359e-05
-1.27121e-05
-4.0377e-06
-2.63153e-05
-1.13802e-05
-4.91964e-06
-2.48384e-05
-1.04016e-05
-5.57927e-06
-2.34834e-05
-9.86271e-06
-4.9301e-06
-2.14421e-05
-8.75538e-06
-4.48974e-06
-1.94904e-05
-7.88013e-06
-5.30412e-06
-1.73259e-05
-7.10735e-06
-3.15315e-06
-1.57507e-05
-6.87603e-06
-4.00471e-06
-1.40584e-05
-6.16807e-06
-4.24702e-06
-1.27694e-05
-5.85554e-06
-2.94642e-06
-1.1702e-05
-4.67211e-06
-3.84501e-06
-1.04723e-05
-3.68361e-06
-2.80314e-06
-9.36079e-06
-2.04888e-06
-2.45923e-06
-8.55015e-06
-4.31236e-07
-1.26017e-06
-7.98776e-06
1.16841e-06
-1.85438e-09
-7.14848e-06
2.84664e-06
1.07828e-06
4.20492e-06
3.15952e-06
2.35665e-06
6.09134e-05
-0.000107163
-4.7416e-05
-1.33024e-06
-0.000166578
-5.68655e-05
1.49033e-05
-7.81451e-06
-3.92841e-05
-1.27906e-06
-1.388e-05
-3.0157e-05
2.23915e-05
-8.45481e-05
-4.24621e-05
1.95648e-05
-4.87926e-06
-3.33791e-05
-8.19939e-06
5.85673e-05
-2.64234e-05
-2.53538e-06
-2.76259e-05
-3.4965e-05
5.9471e-07
-1.77991e-06
-3.25911e-05
5.51645e-06
-2.59063e-06
-3.37152e-05
-3.78992e-06
-4.0438e-06
-3.35798e-05
9.33618e-07
9.85869e-06
-3.04942e-05
-7.00588e-06
-9.02886e-06
-3.20447e-05
-6.55962e-06
1.6616e-05
-2.67655e-05
-1.21404e-05
-1.19831e-05
-2.65197e-05
-9.5402e-06
1.12163e-05
-2.45752e-05
-1.28844e-05
-3.46739e-06
-2.43761e-05
-1.21981e-05
-8.73823e-07
-2.43781e-05
-1.22362e-05
-1.89687e-06
-2.36035e-05
-1.21834e-05
-1.26972e-07
-2.33645e-05
-1.15078e-05
-2.69146e-06
-2.28218e-05
-1.01219e-05
-1.71537e-06
-2.2283e-05
-9.68195e-06
-2.88163e-06
-2.14662e-05
-8.81965e-06
-1.85252e-06
-2.06133e-05
-8.13401e-06
-2.11593e-06
-1.99e-05
-6.92818e-06
-2.27535e-06
-1.89817e-05
-6.49382e-06
-2.22779e-06
-1.80021e-05
-6.3837e-06
-1.71751e-06
-1.75271e-05
-5.34996e-06
-2.33063e-06
-1.66008e-05
-5.33742e-06
-1.06087e-06
-1.59141e-05
-4.21505e-06
-2.12757e-06
-1.50152e-05
-3.4659e-06
-3.65251e-07
-1.39255e-05
-2.20374e-06
-9.83073e-07
-1.26245e-05
-1.01801e-06
4.62895e-07
-1.11695e-05
2.29699e-07
6.59859e-07
-9.53447e-06
1.55606e-06
1.57227e-06
-7.74983e-06
2.44014e-06
2.2518e-06
2.71796e-06
2.66677e-06
-1.16154e-05
0.000157756
-0.000166797
-5.05968e-05
7.7825e-05
-0.000147643
-4.56685e-05
8.03949e-05
2.81646e-05
-5.56318e-05
3.77837e-05
-3.2716e-05
-6.1963e-05
1.84235e-05
-3.83933e-05
-4.88958e-05
1.39932e-05
2.92666e-05
-3.57072e-05
4.36548e-06
1.87239e-05
-3.46396e-05
-7.03694e-06
-1.07032e-05
-3.19261e-05
3.19363e-06
-1.61109e-05
-2.97381e-05
1.09841e-05
1.19956e-05
-2.94944e-05
-4.8413e-06
-2.63791e-05
-2.9243e-05
3.30006e-06
-1.10217e-06
-3.10166e-05
-4.57904e-06
-1.75851e-05
-3.02174e-05
-2.50511e-06
-5.60335e-06
-3.22201e-05
-9.40129e-06
-1.16299e-05
-3.09035e-05
-5.81244e-06
-9.26601e-06
-2.93151e-05
-1.13039e-05
-5.72128e-06
-2.8113e-05
-1.07089e-05
-6.56758e-06
-2.6613e-05
-1.13691e-05
-6.22997e-06
-2.5675e-05
-1.08637e-05
-4.28682e-06
-2.44161e-05
-1.08636e-05
-4.19413e-06
-2.35352e-05
-9.28871e-06
-5.62842e-06
-2.24248e-05
-8.53944e-06
-2.26036e-06
-2.12697e-05
-8.52112e-06
-3.78584e-06
-2.07141e-05
-7.21024e-06
-3.17729e-06
-1.98294e-05
-5.76815e-06
-2.26909e-06
-1.93227e-05
-5.79082e-06
-3.2944e-06
-1.88136e-05
-5.30358e-06
-1.95891e-06
-1.83927e-05
-4.20631e-06
-2.29561e-06
-1.79905e-05
-4.44463e-06
-2.00611e-06
-1.7445e-05
-3.34702e-06
-1.45178e-06
-1.6854e-05
-2.83447e-06
-1.41739e-06
-1.59636e-05
-1.9282e-06
-7.46559e-07
-1.49928e-05
-1.03418e-06
-6.41206e-07
-1.3804e-05
-7.68455e-08
1.03679e-07
-1.2209e-05
6.3032e-07
1.87687e-07
-1.04917e-05
1.18747e-06
6.65864e-07
6.07921e-07
-2.77593e-05
0.000243943
-0.000166924
-3.05137e-05
0.000139892
-9.56703e-05
-1.06335e-06
0.000102586
5.52006e-06
-1.66695e-05
4.75407e-05
1.77752e-05
-2.50788e-05
1.00151e-05
5.30233e-05
-1.24344e-05
5.55326e-06
3.94949e-05
-2.10892e-05
2.89908e-06
-2.4627e-05
-2.9009e-05
1.21172e-05
-1.15522e-05
-3.19052e-05
1.14818e-05
-1.90007e-05
-3.48521e-05
1.76612e-05
-2.94207e-05
-4.14289e-05
9.72305e-06
-3.04294e-05
-4.1364e-05
2.78818e-06
-2.17342e-05
-3.88897e-05
2.77558e-06
2.25184e-06
-3.79579e-05
-2.78383e-06
-1.23786e-05
-3.26901e-05
-8.00239e-06
2.39104e-06
-3.01714e-05
-9.3418e-06
-8.69861e-06
-2.79396e-05
-9.52996e-06
1.32514e-06
-2.59558e-05
-1.1161e-05
-4.61411e-06
-2.49362e-05
-1.08383e-05
-2.89752e-06
-2.41827e-05
-1.02826e-05
-2.39477e-06
-2.32584e-05
-1.01904e-05
-2.67951e-06
-2.21493e-05
-8.99645e-06
-3.6755e-06
-2.1506e-05
-7.93551e-06
-2.59505e-06
-2.0334e-05
-8.48861e-06
-2.30955e-06
-1.99008e-05
-6.46899e-06
-2.63818e-06
-1.92859e-05
-5.18779e-06
-2.91809e-06
-1.87434e-05
-5.23415e-06
-2.76586e-06
-1.84579e-05
-4.4129e-06
-2.31151e-06
-1.79789e-05
-3.50479e-06
-2.69264e-06
-1.77162e-05
-3.67634e-06
-2.45945e-06
-1.7198e-05
-2.63514e-06
-2.10382e-06
-1.663e-05
-2.40746e-06
-2.27415e-06
-1.58792e-05
-1.64976e-06
-1.78165e-06
-1.49912e-05
-9.90976e-07
-1.5933e-06
-1.39215e-05
-3.90502e-07
-1.35008e-06
-1.27659e-05
1.94666e-07
-1.0306e-06
5.52032e-07
-8.77425e-07
-1.47134e-05
0.000302044
-0.000161039
-1.86309e-07
0.000167426
-4.75676e-05
1.24941e-05
0.000133999
7.69633e-06
-2.23377e-05
9.83658e-05
-7.36182e-06
-2.88715e-05
2.47967e-05
-1.09126e-05
-1.18222e-05
-1.98379e-05
6.69227e-06
-9.09886e-06
-1.24295e-05
-2.34076e-05
-3.05943e-06
2.21324e-05
-2.98793e-06
-4.85262e-06
1.42472e-05
-2.82832e-05
-7.32837e-06
1.75882e-05
-1.36272e-05
-2.26596e-05
2.38922e-05
1.33644e-05
-2.57011e-05
1.02857e-05
2.30592e-05
-2.54271e-05
1.04017e-05
-1.91806e-06
-3.05633e-05
3.94025e-07
4.25339e-06
-2.92756e-05
-4.53113e-06
-5.73626e-06
-2.93658e-05
-8.54443e-06
-2.56038e-06
-2.78968e-05
-8.76205e-06
-2.07836e-06
-2.62991e-05
-1.08631e-05
-4.888e-06
-2.50096e-05
-1.09808e-05
-4.53383e-06
-2.3591e-05
-9.73108e-06
-6.07359e-07
-2.27768e-05
-1.00766e-05
-4.20275e-06
-2.17505e-05
-8.22883e-06
-3.25581e-06
-2.07579e-05
-7.88596e-06
-2.47049e-06
-1.95364e-05
-8.72586e-06
-1.07159e-06
-1.91779e-05
-5.57756e-06
-2.09547e-06
-1.86661e-05
-4.63213e-06
-2.95367e-06
-1.82436e-05
-4.55882e-06
-2.28628e-06
-1.78807e-05
-3.42102e-06
-2.09445e-06
-1.76726e-05
-2.66326e-06
-2.9833e-06
-1.71673e-05
-2.81368e-06
-2.2139e-06
-1.6777e-05
-1.90823e-06
-2.59078e-06
-1.61092e-05
-1.85567e-06
-2.34335e-06
-1.53972e-05
-1.24328e-06
-2.21076e-06
-1.46002e-05
-7.84213e-07
-2.06304e-06
-1.36895e-05
-3.45255e-07
-1.73939e-06
-1.2735e-05
7.32914e-08
-1.65741e-06
3.03564e-07
-1.38549e-06
-3.02968e-05
0.00036677
-4.05115e-05
-9.19779e-06
0.000207459
-2.24563e-05
1.05059e-05
0.000163553
-3.04358e-05
-1.29844e-05
0.000134181
-2.22206e-05
-3.4248e-05
5.86632e-05
4.67162e-06
-4.88441e-05
4.21717e-06
-9.73115e-06
-4.68841e-05
4.35697e-06
-1.24279e-05
-3.93805e-05
1.92503e-05
-2.60405e-05
-3.86981e-05
1.77041e-05
-5.67152e-06
-3.47012e-05
1.94797e-05
-9.08045e-06
-3.48764e-05
2.74686e-05
-4.79361e-06
-4.22328e-05
2.01686e-05
-2.02581e-05
-4.05515e-05
9.2947e-06
-8.41592e-06
-3.77442e-05
1.24124e-06
-1.92482e-06
-3.27001e-05
-8.18065e-06
-2.71345e-06
-2.72698e-05
-1.06836e-05
-3.40289e-06
-2.41679e-05
-1.15684e-05
2.23424e-06
-2.27353e-05
-1.06212e-05
-3.012e-06
-2.2078e-05
-1.06903e-05
-7.74268e-07
-2.15511e-05
-9.53483e-06
-3.05054e-06
-2.13034e-05
-9.54527e-06
-5.77792e-07
-2.07962e-05
-7.53277e-06
-4.26665e-06
-1.99472e-05
-8.01507e-06
-2.44792e-06
-1.88728e-05
-9.43391e-06
1.59414e-06
-1.87583e-05
-5.59256e-06
-2.27464e-06
-1.797e-05
-4.24359e-06
-1.39668e-06
-1.77183e-05
-4.42877e-06
-1.26243e-06
-1.76638e-05
-2.47384e-06
-1.47422e-06
-1.73924e-05
-2.14823e-06
-1.99889e-06
-1.70144e-05
-2.18888e-06
-1.83965e-06
-1.65575e-05
-1.36894e-06
-1.94931e-06
-1.58812e-05
-1.48498e-06
-2.19965e-06
-1.50724e-05
-9.80789e-07
-2.02072e-06
-1.42815e-05
-6.29232e-07
-1.90012e-06
-1.33812e-05
-3.68531e-07
-1.72268e-06
-1.24635e-05
-3.29045e-08
-1.57293e-06
1.2193e-07
-1.41728e-06
5.77706e-05
0.000343314
-4.38524e-05
8.87899e-05
0.000201183
-0.000127264
8.32985e-05
0.000171951
-9.45716e-05
6.26656e-05
0.00015917
-3.64378e-05
4.12722e-05
9.25592e-05
-3.19175e-05
2.30191e-05
-2.7903e-06
-8.51908e-06
6.26941e-06
-3.77918e-06
-1.1225e-06
4.00415e-07
1.40065e-05