/*--------------------------------*- C++ -*----------------------------------*\
| =========                 |                                                 |
| \\      /  F ield         | OpenFOAM: The Open Source CFD Toolbox           |
|  \\    /   O peration     | Version:  2.3.1                                 |
|   \\  /    A nd           | Web:      www.OpenFOAM.org                      |
|    \\/     M anipulation  |                                                 |
\*---------------------------------------------------------------------------*/
FoamFile
{
    version     2.0;
    format      ascii;
    class       surfaceScalarField;
    location    "10";
    object      phi_0;
}
// * * * * * * * * * * * * * * * * * * * * * * * * * * * * * * * * * * * * * //

dimensions      [0 3 -1 0 0 0 0];

internalField   nonuniform List<scalar> 
108164
(
0.000141179
-0.00101045
4.7186e-05
0.000111792
-0.000576404
0.00060579
0.000226855
7.15547e-05
-0.000186617
0.000141956
-8.92584e-06
9.38249e-05
0.000194893
-0.000115581
6.26439e-05
0.000233745
-5.72767e-05
1.8425e-05
0.000165154
-4.12753e-06
7.27186e-05
6.83592e-05
1.12849e-05
8.55095e-05
3.1164e-05
-5.43988e-06
4.26351e-05
1.39397e-05
-1.39884e-06
1.86232e-05
7.34865e-06
-1.65624e-05
2.31535e-05
3.3358e-06
-1.24208e-05
1.64336e-05
5.78554e-06
-1.93438e-05
1.68941e-05
6.94319e-06
-1.6266e-05
1.51083e-05
1.07979e-05
-2.03567e-05
1.6502e-05
1.66193e-05
-1.61257e-05
1.03043e-05
2.29042e-05
-1.66262e-05
1.03413e-05
2.97495e-05
-1.47696e-05
7.92438e-06
3.73697e-05
-1.4269e-05
6.64866e-06
4.6686e-05
-1.29036e-05
3.58738e-06
5.51967e-05
-9.94947e-06
1.43875e-06
5.79248e-05
-7.81123e-06
5.08315e-06
5.53641e-05
-7.76012e-06
1.03208e-05
5.78063e-05
-8.44373e-06
6.00154e-06
6.35093e-05
-6.48655e-06
7.83567e-07
6.38995e-05
-4.05955e-06
3.66931e-06
6.25757e-05
-3.43268e-06
4.75648e-06
6.08519e-05
-3.54069e-06
5.26449e-06
5.79821e-05
-4.36027e-06
7.23006e-06
6.08667e-05
-5.06623e-06
2.18163e-06
6.40887e-05
-4.29781e-06
1.07583e-06
6.02889e-05
-3.78888e-06
7.58871e-06
6.06109e-05
-3.84073e-06
3.51874e-06
6.48074e-05
-1.48586e-06
-2.71067e-06
6.0403e-05
9.80252e-07
3.42412e-06
5.52331e-05
2.06884e-06
3.10107e-06
5.74495e-05
6.50854e-06
-8.72493e-06
1.06011e-05
-1.11022e-05
-0.000524202
0.00158568
-0.00148305
-0.000176349
-0.000388054
-0.000536203
6.94456e-05
6.91334e-05
-0.000243373
-0.00014746
0.000169398
3.85816e-05
-2.52035e-05
-8.08647e-05
-0.000156973
-7.62035e-05
-1.65487e-05
1.02721e-05
-7.34998e-05
8.8587e-06
-1.569e-05
-4.05461e-05
-8.39159e-06
-1.32772e-05
-3.51846e-05
-1.61533e-05
5.35196e-06
-3.17695e-05
-5.41144e-06
5.97523e-07
-2.35598e-05
-2.13104e-05
-3.46176e-06
-2.66877e-05
-1.40128e-05
4.71984e-06
-2.23655e-05
-2.23187e-05
-1.34733e-06
-2.64727e-05
-1.89878e-05
6.82899e-06
-3.04385e-05
-2.63723e-05
9.98131e-06
-3.57988e-05
-2.24752e-05
1.17098e-05
-3.30744e-05
-2.09822e-05
1.63173e-06
-3.1246e-05
-1.87402e-05
2.14214e-06
-3.05572e-05
-1.66302e-05
1.67238e-06
-2.66849e-05
-1.69642e-05
1.88375e-07
-2.29016e-05
-1.40615e-05
3.28653e-07
-1.80792e-05
-1.18799e-05
-7.53674e-07
-1.49715e-05
-1.02387e-05
-6.29111e-07
-1.19599e-05
-9.83153e-06
-1.62386e-06
-8.09748e-06
-8.24259e-06
-2.10634e-06
-3.85745e-06
-6.19915e-06
-2.10043e-06
2.45931e-08
-5.79284e-06
-1.52188e-06
3.4051e-06
-5.5465e-06
-1.37469e-06
6.33126e-06
-5.62315e-06
-1.66328e-06
8.92831e-06
-5.55977e-06
-2.10352e-06
1.13115e-05
-4.88863e-06
-1.7924e-06
1.40077e-05
-3.25245e-06
-3.23261e-06
1.6623e-05
-1.03735e-06
-5.41862e-06
1.74299e-05
1.89468e-06
-4.18748e-06
1.71899e-05
5.83716e-06
-4.61696e-06
2.1937e-05
1.03545e-05
-1.30328e-05
3.39924e-05
1.29776e-05
-1.85245e-05
-1.03065e-05
7.02005e-05
0.00156627
-0.000208668
-5.41985e-05
0.000268358
-0.000532013
-0.0002156
1.65181e-05
0.000214017
-7.45181e-05
0.000130884
-0.000102568
-4.9947e-05
-2.54212e-05
-8.00146e-05
-5.42211e-05
3.84327e-06
-1.61179e-05
-3.42293e-05
1.29189e-05
-2.4052e-05
-2.62803e-05
-3.83121e-06
-1.25094e-05
-1.4147e-05
-5.38276e-06
-2.29039e-05
-9.47045e-06
1.50704e-06
-1.1595e-05
-6.04415e-06
-2.91867e-06
-2.1818e-05
2.80982e-06
-4.95977e-06
-1.7907e-05
5.97242e-06
-5.82964e-06
-1.96517e-05
1.5061e-05
-6.64573e-06
-2.14306e-05
1.78828e-05
-1.84186e-05
-1.07755e-05
9.54651e-07
-1.26465e-05
7.09941e-06
-1.28349e-05
-1.49212e-05
7.72845e-06
-1.78293e-05
-1.61889e-05
2.44317e-06
-2.26006e-05
-1.30465e-05
1.18764e-06
-1.97323e-05
-1.76223e-05
-2.21034e-06
-2.00061e-05
-1.26506e-05
-1.13705e-06
-1.89152e-05
-1.05292e-05
-2.44156e-06
-1.64364e-05
-1.16292e-05
-1.08838e-06
-1.39635e-05
-9.55813e-06
-2.74625e-06
-1.1176e-05
-8.28903e-06
-2.74107e-06
-7.91288e-06
-5.1325e-06
-4.32979e-06
-5.01177e-06
-5.81409e-06
-2.87987e-06
-2.46056e-06
-4.65011e-06
-3.44761e-06
-3.5442e-07
-4.06116e-06
-3.66813e-06
1.47857e-06
-3.75787e-06
-3.63489e-06
3.19591e-06
-2.57135e-06
-4.03461e-06
5.28189e-06
-9.66599e-07
-4.37184e-06
7.80976e-06
1.10116e-06
-4.66637e-06
1.07614e-05
3.45162e-06
-4.50854e-06
1.51377e-05
6.06123e-06
-4.60036e-06
2.15067e-05
8.4915e-06
-4.50601e-06
1.00964e-05
-8.1867e-07
7.66559e-05
0.00147113
-0.000215907
9.38301e-05
0.000386089
-0.000134905
-4.50908e-05
0.00019974
-4.43008e-05
-2.392e-05
1.76547e-05
9.20585e-05
1.59125e-05
-1.99908e-05
-4.5263e-05
2.82641e-06
5.01683e-05
-3.32389e-05
-3.24676e-05
2.70587e-05
2.11541e-05
-4.95759e-05
2.4545e-05
-1.12679e-05
-4.25907e-05
-1.90814e-05
6.71352e-06
-4.96388e-05
1.74245e-05
-8.86946e-06
-4.94826e-05
-1.00246e-05
6.94978e-06
-4.66868e-05
3.9877e-06
-1.17433e-05
-4.85568e-05
-7.37105e-06
3.41145e-06
-4.60938e-05
3.51609e-06
-1.26248e-05
-3.92807e-05
-1.4624e-05
-1.06077e-05
-3.7587e-05
-1.84504e-06
-1.24952e-05
-3.15359e-05
-1.17528e-05
-9.21942e-06
-3.05268e-05
-1.38442e-05
-3.35375e-06
-2.99722e-05
-9.8979e-06
-3.70319e-06
-2.465e-05
-1.43212e-05
-8.62327e-06
-2.62372e-05
-1.1435e-05
3.7154e-07
-2.40036e-05
-9.52421e-06
-3.23857e-06
-2.1298e-05
-1.07287e-05
-3.60606e-06
-1.91302e-05
-8.65588e-06
-3.0701e-06
-1.66087e-05
-8.43052e-06
-2.38003e-06
-1.32396e-05
-4.83393e-06
-3.66763e-06
-1.10136e-05
-6.71931e-06
-1.32074e-06
-8.41186e-06
-4.64392e-06
-2.60795e-06
-6.07328e-06
-3.81296e-06
-2.58679e-06
-4.17485e-06
-3.91639e-06
-1.73991e-06
-2.48624e-06
-1.70676e-06
-2.55319e-06
-8.05137e-07
-9.50483e-07
-1.69722e-06
7.00662e-07
1.24397e-06
-1.64861e-06
1.87691e-06
3.02542e-06
-7.50039e-07
2.63349e-06
5.0188e-06
2.85851e-07
2.96539e-06
6.87685e-06
1.28275e-06
8.35622e-06
2.9671e-06
9.17937e-05
0.00135593
-0.000130174
0.0001349
0.000512241
-0.000169258
4.41584e-05
0.000246713
4.37689e-05
-1.41054e-05
3.59247e-05
3.99938e-05
1.33791e-05
1.52201e-05
-6.26954e-05
2.27118e-05
5.19598e-05
-1.11242e-05
-1.20638e-05
2.0486e-06
5.97858e-05
-2.24331e-06
4.23741e-05
-2.76496e-05
-1.24119e-05
-5.22616e-07
-8.39018e-06
-1.05372e-05
1.25453e-05
3.00449e-06
-4.04644e-06
-6.52894e-06
-9.98648e-06
-1.5921e-05
-3.29885e-06
1.91611e-05
-1.80997e-05
1.55713e-06
-6.7495e-06
-2.21393e-05
-1.40102e-05
2.15659e-05
-2.19742e-05
-5.16837e-06
-9.62073e-06
-2.41402e-05
-1.57789e-05
1.60998e-05
-2.37721e-05
-8.99528e-06
-3.12558e-06
-2.36537e-05
-1.42082e-05
2.45519e-07
-2.15464e-05
-1.18894e-05
-1.15741e-07
-2.49373e-05
-1.25009e-05
1.57059e-06
-2.29379e-05
-1.21907e-05
-1.24361e-06
-2.16714e-05
-1.08791e-05
8.83131e-08
-2.12165e-05
-9.55683e-06
-1.62671e-06
-2.09481e-05
-8.92979e-06
5.48447e-09
-1.90654e-05
-9.67414e-06
-6.39054e-07
-1.76112e-05
-5.67751e-06
-6.10645e-07
-1.67997e-05
-6.83559e-06
-6.95214e-07
-1.45732e-05
-6.62676e-06
-2.43666e-07
-1.37103e-05
-3.63767e-06
-1.03815e-06
-1.24172e-05
-5.59488e-06
3.8531e-07
-1.10519e-05
-2.08945e-06
-9.8258e-07
-1.01789e-05
-2.57658e-06
7.53107e-07
-8.78323e-06
-1.06876e-07
-4.48362e-08
-7.73945e-06
8.01886e-07
1.17974e-06
-6.52066e-06
2.62019e-06
1.17982e-06
-5.42783e-06
3.86419e-06
1.91983e-06
-4.16892e-06
4.82396e-06
2.27334e-06
5.03501e-06
2.41058e-06
0.000126686
0.00126277
-0.000128455
0.000143687
0.000596046
-0.000100807
3.29443e-05
0.000257021
0.000100435
-2.47284e-05
9.84382e-05
-4.84078e-06
-2.50844e-05
6.41725e-05
-4.85965e-05
-3.88419e-05
2.90044e-05
3.67129e-05
-3.81857e-05
-4.32333e-05
4.46257e-05
-1.19073e-05
3.00109e-05
-1.39152e-05
-2.41604e-05
2.27046e-05
-1.09741e-05
-3.22556e-05
9.89314e-07
1.96512e-05
-1.85153e-05
6.95596e-06
-2.72252e-05
-2.45769e-05
1.25883e-06
1.50392e-06
-2.84849e-05
2.23803e-05
-1.69152e-05
-2.78619e-05
-1.38671e-05
-7.66094e-07
-3.07719e-05
8.62039e-06
-1.08788e-05
-2.82587e-05
-1.40596e-05
-4.23258e-06
-2.91252e-05
-5.57052e-06
-2.55825e-06
-2.77393e-05
-1.17227e-05
-3.87133e-06
-2.52406e-05
-1.05219e-05
-3.86625e-06
-2.50151e-05
-1.06972e-05
-2.02923e-06
-2.37382e-05
-1.11821e-05
-2.28558e-06
-2.19211e-05
-8.77896e-06
-3.91717e-06
-2.28513e-05
-8.61784e-06
-8.85515e-09
-2.0225e-05
-9.22867e-06
-2.32735e-06
-2.00896e-05
-8.10874e-06
-1.70081e-06
-1.98887e-05
-5.65686e-06
-2.21583e-07
-1.84959e-05
-6.14516e-06
-2.08322e-06
-1.80999e-05
-6.65268e-06
-3.70088e-07
-1.76595e-05
-3.34891e-06
-7.2919e-07
-1.67317e-05
-5.81283e-06
-7.09828e-07
-1.60521e-05
-2.73154e-06
-3.74809e-08
-1.52306e-05
-3.20465e-06
-1.93461e-07
-1.41886e-05
-1.56979e-06
4.20877e-07
-1.29145e-05
-7.87151e-07
3.15019e-07
-1.16573e-05
3.75396e-07
9.87574e-07
-9.7956e-06
1.14486e-06
8.57618e-07
-7.90783e-06
1.80615e-06
1.13005e-06
9.79462e-07
6.99781e-05
0.00120743
-0.000129823
0.00011103
0.000586454
-3.14597e-05
4.65904e-05
0.00026462
5.68403e-05
2.11888e-05
0.000112605
1.12344e-05
-3.81831e-06
5.29304e-05
3.62492e-05
-3.6442e-05
1.76451e-05
4.3983e-05
-5.56877e-05
1.06713e-05
-3.4659e-05
-5.99163e-05
3.46229e-05
-3.83455e-07
-5.33324e-05
2.96886e-05
-1.3568e-05
-5.22669e-05
2.56534e-05
-2.57296e-05
-4.93408e-05
2.63692e-05
-2.23393e-05
-3.89339e-05
1.30424e-05
-2.21905e-05
-3.63648e-05
7.73262e-06
1.20786e-05
-3.71194e-05
-1.40171e-06
-1.17108e-05
-3.00009e-05
-7.55977e-06
9.06169e-06
-2.60884e-05
-8.27013e-06
-9.70201e-06
-2.84842e-05
-8.48908e-06
5.3144e-06
-2.41924e-05
-1.29459e-05
-3.06852e-06
-2.30371e-05
-1.03256e-05
-1.35168e-06
-2.29189e-05
-9.75208e-06
-1.06335e-06
-2.31592e-05
-9.86457e-06
-1.07722e-06
-2.06946e-05
-8.96809e-06
-2.27543e-06
-2.02507e-05
-7.71357e-06
-1.34823e-06
-1.91131e-05
-9.26044e-06
-1.10577e-06
-1.94452e-05
-6.31376e-06
-1.46292e-06
-1.84457e-05
-4.93564e-06
-1.7207e-06
-1.77023e-05
-5.22105e-06
-1.66754e-06
-1.82422e-05
-4.97837e-06
-1.13437e-06
-1.72399e-05
-2.84067e-06
-1.51056e-06
-1.72174e-05
-4.4068e-06
-1.42847e-06
-1.68871e-05
-2.18929e-06
-8.72581e-07
-1.6123e-05
-2.69061e-06
-1.27812e-06
-1.5434e-05
-1.50692e-06
-7.51925e-07
-1.45937e-05
-9.66364e-07
-6.61025e-07
-1.33132e-05
-3.11235e-07
-5.93897e-07
-1.21769e-05
3.18924e-07
-3.10334e-07
6.77491e-07
-3.1904e-07
5.85309e-05
0.00116325
-0.000127601
0.000130794
0.000517072
-2.88187e-06
7.12296e-05
0.000274043
5.01419e-05
2.25463e-05
0.000154153
7.13595e-06
-1.86047e-06
8.04645e-05
-3.12743e-06
2.19543e-06
1.54256e-05
-1.83642e-06
4.0111e-06
4.49569e-05
-3.61012e-05
1.48945e-05
1.0808e-05
1.29316e-05
2.8306e-05
4.3453e-05
-2.71759e-05
3.81386e-05
3.19357e-05
-1.61149e-05
1.27996e-05
3.94192e-05
1.22891e-05
-1.54282e-05
1.38238e-05
2.74464e-05
-2.2485e-05
8.85526e-06
5.93412e-06
-3.02775e-05
4.10366e-06
2.2872e-06
-2.96456e-05
-7.20516e-06
-9.86601e-07
-2.79606e-05
-8.08685e-06
-1.86827e-06
-2.90871e-05
-7.52442e-06
1.61849e-07
-2.67185e-05
-1.23308e-05
-2.98366e-06
-2.32639e-05
-1.03822e-05
-3.39796e-06
-2.44518e-05
-9.93037e-06
1.36616e-06
-2.21839e-05
-8.86371e-06
-3.26875e-06
-2.10788e-05
-8.60973e-06
-1.46345e-06
-1.9404e-05
-7.95936e-06
-1.429e-06
-1.82207e-05
-1.03543e-05
-8.94888e-08
-1.90407e-05
-4.65191e-06
-8.41869e-07
-1.75998e-05
-4.49084e-06
-1.88571e-06
-1.74242e-05
-4.20651e-06
-1.19009e-06
-1.73574e-05
-4.30738e-06
-7.37826e-07
-1.69044e-05
-1.36032e-06
-1.93329e-06
-1.65949e-05
-3.87047e-06
-8.45862e-07
-1.62971e-05
-1.01437e-06
-1.47272e-06
-1.55135e-05
-2.35064e-06
-1.12363e-06
-1.50871e-05
-8.41655e-07
-1.09166e-06
-1.40867e-05
-9.07802e-07
-1.05897e-06
-1.33927e-05
-2.21954e-07
-7.832e-07
-1.23328e-05
8.30534e-08
-8.24071e-07
3.35144e-07
-6.07871e-07
-4.69595e-06
0.001091
-1.91771e-05
4.05882e-05
0.000437167
3.46213e-05
2.63282e-05
0.000274173
1.41305e-05
-6.19478e-06
0.000197548
-1.08719e-05
-4.98278e-05
0.000107042
1.7055e-05
-7.20343e-05
3.77855e-05
-1.53409e-07
-6.56823e-05
3.20575e-05
6.54745e-06
-5.62472e-05
2.27983e-05
-2.14255e-05
-5.18804e-05
4.06195e-05
-1.53331e-06
-4.54231e-05
2.87015e-05
-3.22312e-06
-4.48326e-05
4.0324e-05
-1.49536e-06
-4.47028e-05
3.13696e-05
-1.76756e-05
-3.81811e-05
1.0155e-05
-7.82138e-06
-3.63238e-05
5.20914e-07
1.72538e-06
-3.20016e-05
-1.02235e-05
-1.30386e-06
-2.74832e-05
-1.24898e-05
-1.15458e-07
-2.4438e-05
-1.31065e-05
2.53681e-06
-2.40911e-05
-1.13401e-05
-1.33752e-06
-2.4093e-05
-1.05545e-05
1.74206e-07
-2.19137e-05
-9.78485e-06
-2.32488e-06
-2.21219e-05
-8.8589e-06
2.0343e-07
-2.06924e-05
-6.9829e-06
-3.05628e-06
-1.82862e-05
-8.63153e-06
-1.73409e-06
-1.78954e-05
-1.27088e-05
1.96372e-06
-1.8862e-05
-1.51386e-06
-2.17148e-06
-1.71124e-05
-6.01945e-06
-2.20992e-07
-1.67847e-05
-3.65349e-06
-8.80644e-07
-1.73896e-05
-3.23093e-06
-4.71537e-07
-1.67054e-05
-8.32594e-07
-1.21193e-06
-1.6405e-05
-3.33443e-06
-8.36504e-07
-1.61744e-05
-2.9252e-07
-9.52379e-07
-1.53115e-05
-2.06143e-06
-1.15218e-06
-1.46528e-05
-5.5113e-07
-9.49219e-07
-1.3879e-05
-7.27677e-07
-9.5385e-07
-1.29654e-05
-2.90068e-07
-8.45518e-07
-1.21027e-05
-1.84535e-08
-7.61163e-07
1.26967e-07
-6.96334e-07
4.71471e-05
0.00103804
-3.85637e-05
0.000117054
0.000472574
-0.000105314
0.000131516
0.000351503
-9.17913e-05
8.56004e-05
0.000274832
-3.13694e-05
4.79815e-05
0.000163892
-1.92304e-05
5.90335e-05
6.01993e-05
-3.34658e-05
7.82871e-05
3.87599e-05
-2.5956e-05
7.80828e-05
6.41705e-05
-4.1168e-05
6.91938e-05
7.21712e-05
-2.26627e-05
6.41283e-05
5.74516e-05
-2.36845e-05
5.0694e-05
6.45773e-05
-1.0819e-05
1.29637e-05
5.08635e-05
1.82363e-05
-1.39193e-05
1.9593e-05
1.7445e-05
-1.57196e-05
9.51696e-07
1.36957e-06
-1.67241e-05
-1.01813e-05
9.6231e-07
-1.47163e-05
-1.16989e-05
-2.79872e-06
-1.54955e-05
-1.3325e-05
9.97686e-07
-1.89169e-05
-1.08551e-05
2.93642e-06
-1.87494e-05
-1.10709e-05
3.48851e-07
-1.94153e-05
-8.36536e-06
-7.53593e-07
-1.95551e-05
-6.52013e-06
-2.19894e-06
-1.80799e-05
-4.05116e-06
-4.40697e-06
-1.64847e-05
-6.62694e-06
-3.59973e-06
-1.71504e-05
-1.13358e-05
-7.07246e-07
-1.71923e-05
-1.15905e-06
-3.12913e-07
-1.57639e-05
-5.94075e-06
-1.5071e-06
-1.56266e-05
-3.34219e-06
-4.48679e-07
-1.69552e-05
-9.14751e-07
-9.8754e-07
-1.59901e-05
-9.71639e-07
-8.26058e-07
-1.61036e-05
-1.54375e-06
-1.67724e-06
-1.5767e-05
1.87976e-07
-8.17064e-07
-1.49575e-05
-1.28614e-06
-1.58481e-06
-1.43503e-05
-1.0452e-08
-1.1478e-06
-1.35782e-05
-3.17137e-07
-1.18265e-06
-1.2773e-05
-6.52912e-08
-1.02999e-06
-1.19938e-05
1.70968e-07
-9.68655e-07
1.61287e-07
-8.44255e-07
6.75924e-05
0.000927998
4.93454e-05
5.88832e-05
0.00041664
6.46432e-05
3.39985e-05
0.000295938
8.04491e-05
3.79625e-05
0.000223062
4.78062e-05
2.34145e-05
0.000142984
3.54554e-05
-1.42954e-05
5.23057e-05
4.56035e-05
-2.38401e-05
3.04197e-05
1.78849e-05
-6.50379e-06
3.5805e-05
1.10292e-05
-5.33926e-07
4.24372e-05
2.37641e-05
2.4515e-07
3.34931e-05
2.31795e-05
-1.14084e-05
4.81787e-05
2.80521e-05
-2.82596e-05
3.95524e-05
2.81623e-05
-2.89819e-05
1.73464e-05
2.96885e-06
-2.53176e-05
-4.49037e-06
1.77773e-06
-1.69226e-05
-1.59478e-05
-2.62848e-06
-4.64085e-06
-1.57702e-05
-8.21039e-06
-1.04577e-06
-7.86835e-06
-9.05169e-06
-3.55731e-06
-4.39231e-06
-3.95127e-06
-9.67392e-06
-5.55158e-06
5.97312e-07
-1.45755e-05
-3.07517e-06
-3.88588e-07
-1.73661e-05
-2.63783e-06
-1.09175e-06
-1.7039e-05
-4.81433e-06
4.36076e-07
-1.38256e-05
-2.18312e-06
-7.65724e-06
-1.82884e-05
-8.1322e-06
1.25916e-06
-1.61358e-05
-4.91476e-06
1.60316e-06
-1.3027e-05
-5.16835e-06
-3.8812e-06
-1.57497e-05
-2.53788e-06
1.91835e-06
-1.62082e-05
-7.25186e-07
2.69022e-07
-1.57538e-05
-7.67509e-07
-6.58555e-07
-1.61348e-05
-7.44469e-07
-4.18308e-07
-1.56883e-05
4.33644e-08
-3.01844e-07
-1.47567e-05
-7.9751e-07
-1.42024e-06
-1.44505e-05
1.00741e-07
-4.17395e-07
-1.32561e-05
-3.32303e-07
-1.17927e-06
-1.27935e-05
1.56187e-08
-5.43522e-07
-1.18197e-05
1.2874e-08
-8.15707e-07
6.6353e-08
-5.9211e-07
0.000149445
0.000542915
0.000209751
0.000356334
0.000220624
0.000285065
0.000235606
0.000208079
0.000231487
0.000147104
0.00017993
0.000103862
0.000136999
7.33512e-05
0.000107606
6.51976e-05
8.78164e-05
6.22272e-05
7.40194e-05
4.729e-05
8.62229e-05
3.59753e-05
0.000101196
2.45795e-05
9.29459e-05
2.55963e-05
6.68186e-05
2.16369e-05
3.51135e-05
1.57573e-05
1.41124e-05
5.23081e-06
2.34641e-06
3.89766e-06
5.09066e-06
-7.13656e-06
9.18685e-06
-9.64777e-06
1.09564e-05
-4.84475e-06
5.35005e-06
2.96855e-06
-1.09579e-05
1.14936e-05
-1.05785e-05
-2.56251e-06
-1.37848e-05
-4.92593e-06
-1.23617e-05
-6.33784e-06
-9.87039e-06
-7.65967e-06
-1.45074e-05
2.09912e-06
-1.4949e-05
-2.83574e-07
-1.55581e-05
-1.58413e-07
-1.61104e-05
-1.92195e-07
-1.5209e-05
-8.58022e-07
-1.47502e-05
-1.2563e-06
-1.40895e-05
-5.59935e-07
-1.30482e-05
-1.37367e-06
-1.25727e-05
-4.59796e-07
-1.16449e-05
-9.14932e-07
-5.89746e-07
0.000101744
-0.0008365
0.000637211
-3.10033e-05
6.10506e-05
0.000677487
-5.07053e-05
-0.000255604
8.86892e-05
6.8422e-05
9.37523e-05
-0.000119055
9.26836e-05
3.11995e-06
3.52623e-05
8.164e-05
2.59717e-05
3.49699e-06
4.49895e-05
1.9981e-05
8.9388e-05
2.76556e-05
1.97145e-05
8.3129e-05
2.2412e-05
2.56659e-07
4.7622e-05
1.30761e-05
2.03059e-06
2.59285e-05
8.93988e-06
-5.38437e-06
3.26741e-05
6.5228e-06
-6.23862e-06
2.50893e-05
8.52867e-06
-1.01625e-05
2.50507e-05
1.05099e-05
-8.93035e-06
2.20574e-05
1.43349e-05
-1.24549e-05
2.5132e-05
2.00322e-05
-1.36773e-05
1.82843e-05
2.62911e-05
-1.43443e-05
1.84267e-05
3.28495e-05
-1.45254e-05
1.58915e-05
4.02028e-05
-1.40934e-05
1.33887e-05
4.72521e-05
-1.20539e-05
8.59196e-06
5.26829e-05
-9.25236e-06
5.26029e-06
5.5014e-05
-7.50883e-06
1.02609e-05
5.56563e-05
-7.37854e-06
1.7057e-05
5.80976e-05
-6.97069e-06
1.0531e-05
6.01208e-05
-4.95351e-06
3.71387e-06
5.94728e-05
-3.03575e-06
7.3531e-06
5.83068e-05
-2.53641e-06
8.4589e-06
5.66648e-05
-3.04631e-06
9.95273e-06
5.61473e-05
-3.74376e-06
1.14914e-05
5.86101e-05
-3.89213e-06
3.61099e-06
5.90181e-05
-3.69657e-06
4.36438e-06
5.78529e-05
-3.68355e-06
1.24375e-05
5.98e-05
-2.33665e-06
3.90828e-06
5.91837e-05
-1.78677e-07
-1.91577e-06
5.54462e-05
-3.74522e-07
7.53616e-06
5.43102e-05
2.04633e-06
2.19071e-06
5.1474e-05
1.08289e-05
-1.67176e-05
1.37883e-05
-1.78361e-05
-0.000189161
-0.000701069
-0.00117614
-0.000285973
0.000156117
-0.000534456
-0.000256387
-0.000253887
-0.000274677
-0.000110561
0.00011148
-0.000124972
-7.80626e-05
-2.1522e-05
-0.00016483
-7.32894e-05
2.03003e-05
1.11702e-05
-5.61877e-05
7.56654e-06
-2.03772e-05
-3.6749e-05
6.84988e-06
-1.98513e-05
-3.40634e-05
-7.72734e-07
3.69571e-06
-3.46601e-05
4.1836e-06
-9.58781e-07
-3.27789e-05
-7.93785e-06
-2.78948e-06
-3.51179e-05
-4.87918e-06
5.6994e-06
-3.37593e-05
-1.25285e-05
-3.39838e-07
-3.49044e-05
-9.19587e-06
8.23955e-06
-3.14479e-05
-1.54307e-05
9.50063e-06
-2.8048e-05
-1.60123e-05
1.06449e-05
-2.43858e-05
-1.73631e-05
9.88304e-07
-2.12561e-05
-1.69882e-05
1.47523e-06
-1.82629e-05
-1.66e-05
1.18578e-06
-1.53476e-05
-1.5032e-05
2.51266e-07
-1.15207e-05
-1.33467e-05
5.96087e-07
-7.62466e-06
-1.17663e-05
-3.92194e-07
-4.79569e-06
-1.02369e-05
-5.99702e-07
-2.43626e-06
-9.29237e-06
-1.66161e-06
1.98214e-07
-7.82069e-06
-1.87364e-06
3.10851e-06
-6.3071e-06
-1.73938e-06
6.07352e-06
-5.80392e-06
-1.21939e-06
8.56474e-06
-5.99292e-06
-9.19304e-07
1.08313e-05
-5.97702e-06
-1.69655e-06
1.28424e-05
-5.87781e-06
-2.12892e-06
1.42276e-05
-5.34144e-06
-1.53277e-06
1.56185e-05
-3.94873e-06
-4.35833e-06
1.71526e-05
-1.78347e-06
-7.50593e-06
1.73129e-05
4.78038e-07
-5.00447e-06
1.68987e-05
3.17474e-06
-7.75202e-06
1.96953e-05
6.62079e-06
-2.04038e-05
2.46064e-05
8.96009e-06
-2.15667e-05
-3.73198e-06
-0.000247383
-0.000262565
-0.000283006
-0.000165265
-0.000116926
-0.000341087
-0.000135239
-1.81588e-05
-5.17379e-05
-0.000106386
-2.58548e-05
5.91344e-06
-5.45436e-05
-1.17142e-05
-0.000141665
-5.25841e-05
6.31894e-06
-4.09607e-06
-3.75938e-05
4.47261e-06
-3.59483e-05
-3.86431e-05
2.19594e-06
-6.80622e-06
-3.23904e-05
-2.08883e-06
-2.78405e-05
-3.38946e-05
-3.65456e-07
-5.5417e-06
-3.32633e-05
-3.40925e-06
-2.69779e-05
-3.23255e-05
-1.14004e-05
-1.23236e-05
-3.14097e-05
-1.12206e-05
-2.18754e-05
-2.82602e-05
-1.62231e-05
-1.75529e-05
-2.53635e-05
-1.46675e-05
-1.44353e-05
-2.5157e-05
-1.68172e-05
7.69786e-06
-2.57956e-05
-1.28613e-05
3.86528e-06
-2.58216e-05
-1.49505e-05
4.31386e-07
-2.57109e-05
-1.61863e-05
6.63207e-07
-2.59613e-05
-1.42477e-05
-2.74424e-06
-2.40751e-05
-1.40466e-05
-2.32336e-06
-2.22611e-05
-1.25313e-05
-3.49064e-06
-1.99329e-05
-1.08923e-05
-2.76122e-06
-1.77803e-05
-1.03609e-05
-3.8303e-06
-1.52385e-05
-8.81045e-06
-4.2931e-06
-1.26068e-05
-7.55736e-06
-5.71122e-06
-9.94904e-06
-6.77148e-06
-4.57004e-06
-7.80819e-06
-6.69291e-06
-4.88846e-06
-5.9123e-06
-6.13514e-06
-5.40591e-06
-4.36166e-06
-5.77043e-06
-5.29291e-06
-3.02473e-06
-4.89062e-06
-5.82236e-06
-1.37209e-06
-3.55038e-06
-6.42284e-06
6.85759e-07
-1.73393e-06
-6.77376e-06
3.12387e-06
-1.16005e-07
-6.35261e-06
6.26747e-06
1.46168e-06
-6.03091e-06
9.15076e-06
3.50205e-06
-4.27056e-06
5.15118e-06
3.32443e-06
-0.000124068
-3.52739e-05
-0.000331314
-0.000166192
-4.69783e-05
-0.000162729
-0.000106185
-4.18378e-05
-8.06283e-05
-4.45595e-05
-3.81861e-05
4.2764e-05
-5.17814e-05
9.38255e-06
-5.91378e-05
-5.10519e-05
1.3641e-05
-4.12904e-05
-3.91993e-05
-3.0662e-07
1.40808e-05
-3.69793e-05
4.53364e-06
-1.58257e-05
-3.13724e-05
-1.33352e-06
3.51297e-07
-3.00447e-05
2.25582e-06
-1.28184e-05
-2.81403e-05
1.0164e-06
6.1975e-07
-2.63174e-05
-8.22092e-06
-1.67457e-05
-2.5981e-05
-6.26161e-06
-1.88395e-06
-2.85386e-05
-1.30536e-05
-1.32367e-05
-2.9969e-05
-9.24183e-06
-1.4603e-05
-3.08412e-05
-1.42149e-05
-1.42253e-05
-3.19015e-05
-1.12806e-05
-9.73979e-06
-2.8611e-05
-1.31403e-05
-8.45442e-06
-2.92023e-05
-1.40337e-05
-5.2645e-06
-2.99293e-05
-1.31115e-05
-9.0324e-06
-2.68444e-05
-1.27111e-05
-4.04885e-06
-2.63186e-05
-1.1377e-05
-4.91871e-06
-2.48406e-05
-1.03942e-05
-5.58209e-06
-2.34829e-05
-9.85443e-06
-4.93439e-06
-2.14376e-05
-8.74741e-06
-4.48837e-06
-1.94842e-05
-7.87317e-06
-5.30522e-06
-1.73204e-05
-7.10265e-06
-3.1533e-06
-1.57463e-05
-6.87295e-06
-4.00202e-06
-1.40554e-05
-6.16515e-06
-4.24772e-06
-1.2768e-05
-5.85228e-06
-2.94548e-06
-1.17013e-05
-4.66676e-06
-3.8437e-06
-1.04713e-05
-3.67611e-06
-2.80151e-06
-9.36045e-06
-2.04059e-06
-2.45279e-06
-8.55236e-06
-4.21364e-07
-1.25277e-06
-7.98823e-06
1.17823e-06
5.17475e-09
-7.14698e-06
2.8552e-06
1.08835e-06
4.21104e-06
3.16813e-06
1.474e-06
6.35595e-05
-0.000107693
-4.89631e-05
-1.62771e-07
-0.000165637
-5.63465e-05
1.39271e-05
-4.61265e-06
-3.90004e-05
-1.29945e-06
-1.42389e-05
-3.01359e-05
2.24933e-05
-8.46706e-05
-4.24166e-05
1.97851e-05
-4.98768e-06
-3.33971e-05
-8.11885e-06
5.85785e-05
-2.63973e-05
-2.56754e-06
-2.75482e-05
-3.49363e-05
5.65158e-07
-1.74989e-06
-3.25973e-05
5.49596e-06
-2.57462e-06
-3.37096e-05
-3.84101e-06
-4.01671e-06
-3.35873e-05
9.08252e-07
9.90961e-06
-3.04875e-05
-7.04487e-06
-9.06601e-06
-3.20407e-05
-6.59318e-06
1.66588e-05
-2.67508e-05
-1.2179e-05
-1.19735e-05
-2.65077e-05
-9.55829e-06
1.12001e-05
-2.45736e-05
-1.28974e-05
-3.44294e-06
-2.43748e-05
-1.22119e-05
-8.8165e-07
-2.43844e-05
-1.22405e-05
-1.89942e-06
-2.36104e-05
-1.21841e-05
-1.3079e-07
-2.33685e-05
-1.1507e-05
-2.68965e-06
-2.28255e-05
-1.01181e-05
-1.71351e-06
-2.22858e-05
-9.67589e-06
-2.88473e-06
-2.14681e-05
-8.8125e-06
-1.85411e-06
-2.06126e-05
-8.12814e-06
-2.11383e-06
-1.98981e-05
-6.92372e-06
-2.27464e-06
-1.89806e-05
-6.48874e-06
-2.22665e-06
-1.8001e-05
-6.38089e-06
-1.71533e-06
-1.7527e-05
-5.34694e-06
-2.33038e-06
-1.66016e-05
-5.3338e-06
-1.05855e-06
-1.59145e-05
-4.21034e-06
-2.12606e-06
-1.50149e-05
-3.45981e-06
-3.62783e-07
-1.39244e-05
-2.19708e-06
-9.78869e-07
-1.26218e-05
-1.01084e-06
4.66606e-07
-1.11655e-05
2.37719e-07
6.63999e-07
-9.52911e-06
1.56227e-06
1.57641e-06
-7.74283e-06
2.44316e-06
2.25493e-06
2.71678e-06
2.66595e-06
-1.28432e-05
0.000161634
-0.000169273
-5.07948e-05
7.97508e-05
-0.000142769
-4.48435e-05
8.03163e-05
2.80943e-05
-5.54122e-05
3.78207e-05
-3.33923e-05
-6.19908e-05
1.86847e-05
-3.82092e-05
-4.88762e-05
1.41331e-05
2.92503e-05
-3.56011e-05
4.42052e-06
1.88112e-05
-3.45905e-05
-7.01369e-06
-1.04797e-05
-3.18911e-05
3.11764e-06
-1.6226e-05
-2.97108e-05
1.09708e-05
1.19961e-05
-2.94916e-05
-4.87839e-06
-2.6407e-05
-2.9243e-05
3.2666e-06
-1.103e-06
-3.10215e-05
-4.60605e-06
-1.75755e-05
-3.02197e-05
-2.53617e-06
-5.62488e-06
-3.22233e-05
-9.42843e-06
-1.16258e-05
-3.09035e-05
-5.83571e-06
-9.27499e-06
-2.93123e-05
-1.1316e-05
-5.73086e-06
-2.81133e-05
-1.072e-05
-6.5623e-06
-2.66142e-05
-1.13719e-05
-6.23391e-06
-2.56763e-05
-1.08634e-05
-4.28769e-06
-2.44177e-05
-1.08622e-05
-4.18908e-06
-2.35367e-05
-9.28556e-06
-5.63067e-06
-2.24266e-05
-8.53319e-06
-2.26165e-06
-2.127e-05
-8.51435e-06
-3.78211e-06
-2.07136e-05
-7.2072e-06
-3.17822e-06
-1.98289e-05
-5.76355e-06
-2.2664e-06
-1.93223e-05
-5.78563e-06
-3.29293e-06
-1.88137e-05
-5.30138e-06
-1.95821e-06
-1.83936e-05
-4.20282e-06
-2.29344e-06
-1.79917e-05
-4.44088e-06
-2.00465e-06
-1.7446e-05
-3.34319e-06
-1.45032e-06
-1.68544e-05
-2.82938e-06
-1.41544e-06
-1.59635e-05
-1.92289e-06
-7.44276e-07
-1.49915e-05
-1.02865e-06
-6.39118e-07
-1.38011e-05
-7.11407e-08
1.06005e-07
-1.22045e-05
6.34149e-07
1.89091e-07
-1.04868e-05
1.18947e-06
6.66044e-07
6.0651e-07
-2.92304e-05
0.000247443
-0.000168406
-2.99442e-05
0.000140883
-9.18785e-05
-6.22753e-08
0.000102325
4.94937e-06
-1.65419e-05
4.78653e-05
1.76694e-05
-2.49869e-05
1.01364e-05
5.32426e-05
-1.22706e-05
5.69531e-06
3.97045e-05
-2.09761e-05
2.92784e-06
-2.44608e-05
-2.89239e-05
1.21075e-05
-1.15569e-05
-3.18815e-05
1.14842e-05
-1.89769e-05
-3.48635e-05
1.76699e-05
-2.94467e-05
-4.14413e-05
9.71089e-06
-3.03508e-05
-4.13599e-05
2.74819e-06
-2.17535e-05
-3.88749e-05
2.73401e-06
2.25359e-06
-3.79396e-05
-2.82551e-06
-1.23567e-05
-3.26647e-05
-8.03489e-06
2.39327e-06
-3.01467e-05
-9.36277e-06
-8.69296e-06
-2.79298e-05
-9.53493e-06
1.31639e-06
-2.59514e-05
-1.1163e-05
-4.60387e-06
-2.49335e-05
-1.08397e-05
-2.90178e-06
-2.41826e-05
-1.0281e-05
-2.39673e-06
-2.32599e-05
-1.01873e-05
-2.67485e-06
-2.21509e-05
-8.99377e-06
-3.67616e-06
-2.1508e-05
-7.92881e-06
-2.59557e-06
-2.0335e-05
-8.48345e-06
-2.30963e-06
-1.99008e-05
-6.46786e-06
-2.63645e-06
-1.92861e-05
-5.18298e-06
-2.91594e-06
-1.87435e-05
-5.22987e-06
-2.76592e-06
-1.84584e-05
-4.41101e-06
-2.30987e-06
-1.79796e-05
-3.50124e-06
-2.69095e-06
-1.77169e-05
-3.67324e-06
-2.45879e-06
-1.71984e-05
-2.63194e-06
-2.10233e-06
-1.66297e-05
-2.40339e-06
-2.27278e-06
-1.58781e-05
-1.64588e-06
-1.7806e-06
-1.4989e-05
-9.86898e-07
-1.59188e-06
-1.39181e-05
-3.86809e-07
-1.34911e-06
-1.27622e-05
1.97597e-07
-1.0297e-06
5.53576e-07
-8.77041e-07
-1.37999e-05
0.000306813
-0.00015698
6.60674e-07
0.000169137
-4.55966e-05
1.26065e-05
0.000134385
6.13621e-06
-2.26254e-05
9.90176e-05
-8.78439e-06
-2.90792e-05
2.48765e-05
-1.14138e-05
-1.18428e-05
-1.99181e-05
6.54063e-06
-9.07952e-06
-1.24935e-05
-2.34432e-05
-3.02742e-06
2.20011e-05
-3.01404e-06
-4.7977e-06
1.43006e-05
-2.82221e-05
-7.31182e-06
1.76213e-05
-1.35521e-05
-2.26686e-05
2.39285e-05
1.34283e-05
-2.5726e-05
1.0247e-05
2.30049e-05
-2.54446e-05
1.03506e-05
-1.9638e-06
-3.05552e-05
3.28404e-07
4.24382e-06
-2.92736e-05
-4.56051e-06
-5.74253e-06
-2.93604e-05
-8.56418e-06
-2.58012e-06
-2.78916e-05
-8.7691e-06
-2.07271e-06
-2.62929e-05
-1.08649e-05
-4.88051e-06
-2.50067e-05
-1.09802e-05
-4.54372e-06
-2.35902e-05
-9.72765e-06
-6.0361e-07
-2.27772e-05
-1.00727e-05
-4.1964e-06
-2.17516e-05
-8.22653e-06
-3.25626e-06
-2.07601e-05
-7.87766e-06
-2.47169e-06
-1.95374e-05
-8.72279e-06
-1.07282e-06
-1.91776e-05
-5.57788e-06
-2.09162e-06
-1.86666e-05
-4.627e-06
-2.95274e-06
-1.82441e-05
-4.55537e-06
-2.28703e-06
-1.78812e-05
-3.41951e-06
-2.09228e-06
-1.76734e-05
-2.6599e-06
-2.98244e-06
-1.7168e-05
-2.81115e-06
-2.21337e-06
-1.67774e-05
-1.90557e-06
-2.58962e-06
-1.61092e-05
-1.8525e-06
-2.34276e-06
-1.53964e-05
-1.24042e-06
-2.20987e-06
-1.45986e-05
-7.81259e-07
-2.06245e-06
-1.36871e-05
-3.42666e-07
-1.73879e-06
-1.27318e-05
7.50805e-08
-1.65691e-06
3.0463e-07
-1.38538e-06
-2.70812e-05
0.000371505
-3.63001e-05
-7.91169e-06
0.000209456
-2.48665e-05
1.08303e-05
0.000163806
-3.40319e-05
-1.23543e-05
0.000134245
-2.29151e-05
-3.36861e-05
5.8543e-05
4.72031e-06
-4.85425e-05
4.11516e-06
-9.3302e-06
-4.67499e-05
4.33914e-06
-1.20778e-05
-3.93515e-05
1.92349e-05
-2.60578e-05
-3.86754e-05
1.77541e-05
-5.66292e-06
-3.47285e-05
1.95493e-05
-9.09809e-06
-3.49254e-05
2.74942e-05
-4.86423e-06
-4.2281e-05
2.0132e-05
-2.0205e-05
-4.05519e-05
9.21523e-06
-8.41518e-06
-3.77177e-05
1.16224e-06
-1.94261e-06
-3.26586e-05
-8.22375e-06
-2.69977e-06
-2.72402e-05
-1.06918e-05
-3.40623e-06
-2.4151e-05
-1.15641e-05
2.24264e-06
-2.27288e-05
-1.06165e-05
-3.00811e-06
-2.20773e-05
-1.06841e-05
-7.73347e-07
-2.15524e-05
-9.52971e-06
-3.04769e-06
-2.1305e-05
-9.54253e-06
-5.74082e-07
-2.07979e-05
-7.53022e-06
-4.25976e-06
-1.99502e-05
-8.00655e-06
-2.4529e-06
-1.88732e-05
-9.43222e-06
1.59622e-06
-1.8758e-05
-5.59484e-06
-2.26977e-06
-1.79713e-05
-4.23763e-06
-1.39707e-06
-1.77185e-05
-4.42666e-06
-1.26207e-06
-1.76643e-05
-2.47297e-06
-1.47235e-06
-1.73931e-05
-2.14509e-06
-1.99788e-06
-1.70148e-05
-2.18719e-06
-1.83879e-06
-1.65576e-05
-1.36697e-06
-1.94814e-06
-1.58809e-05
-1.48263e-06
-2.19883e-06
-1.50715e-05
-9.78894e-07
-2.02008e-06
-1.42799e-05
-6.27219e-07
-1.89953e-06
-1.3379e-05
-3.6681e-07
-1.72228e-06
-1.24609e-05
-3.16683e-08
-1.5725e-06
1.22783e-07
-1.41702e-06
5.92758e-05
0.000348454
-4.55829e-05
8.93643e-05
0.000202542
-0.000128488
8.28727e-05
0.00017238
-9.38738e-05
6.26048e-05
0.000158786
-3.56416e-05
4.15653e-05
9.17987e-05
-3.14467e-05
2.33719e-05
-3.0683e-06
-8.08893e-06
6.49721e-06
-3.73214e-06
-1.01004e-06
5.45457e-07