/*--------------------------------*- C++ -*----------------------------------*\
| =========                 |                                                 |
| \\      /  F ield         | OpenFOAM: The Open Source CFD Toolbox           |
|  \\    /   O peration     | Version:  2.3.1                                 |
|   \\  /    A nd           | Web:      www.OpenFOAM.org                      |
|    \\/     M anipulation  |                                                 |
\*---------------------------------------------------------------------------*/
FoamFile
{
    version     2.0;
    format      ascii;
    class       volScalarField;
    location    "10";
    object      Sed;
}
// * * * * * * * * * * * * * * * * * * * * * * * * * * * * * * * * * * * * * //

dimensions      [0 0 0 0 0 0 0];

internalField   nonuniform List<scalar> 
37632
(
6.43876e-207
9.11533e-208
8.81498e-209
3.22671e-209
1.43526e-209
1.39358e-209
1.22689e-209
3.48042e-210
2.20821e-211
5.53035e-213
6.19989e-215
3.44835e-216
1.72286e-216
1.64022e-216
1.28016e-216
1.32175e-216
1.25374e-216
1.10969e-216
1.05169e-216
1.053e-216
1.05737e-216
9.98535e-217
7.02575e-217
3.60966e-217
1.88298e-217
9.43261e-218
4.02939e-218
1.45518e-218
4.52396e-219
1.27846e-219
3.67264e-220
1.03442e-220
2.68132e-221
7.11396e-222
1.92125e-222
4.60604e-223
9.93932e-224
2.16236e-224
1.73792e-207
6.30128e-209
1.31119e-209
3.1283e-210
9.04531e-211
1.08571e-210
7.60656e-211
7.829e-212
5.19242e-214
9.88255e-216
3.84113e-217
2.1501e-217
1.2174e-217
9.5991e-218
6.97836e-218
7.80844e-218
7.87152e-218
7.56569e-218
7.31918e-218
6.39819e-218
5.04353e-218
3.39649e-218
1.80463e-218
8.65558e-219
4.08434e-219
1.73976e-219
6.12751e-220
1.91802e-220
5.53664e-221
1.55021e-221
4.4615e-222
1.26874e-222
3.37656e-223
8.98466e-224
4.12371e-224
1.69286e-224
8.33774e-225
3.04164e-225
1.51801e-207
1.0279e-208
3.8548e-210
6.46402e-211
3.83953e-212
2.7108e-212
2.21856e-212
2.13647e-214
1.3958e-216
1.60601e-217
5.73577e-218
4.16422e-218
2.1055e-218
1.60717e-218
5.63652e-219
2.9414e-219
2.57094e-219
2.24544e-219
2.12796e-219
1.63629e-219
1.05758e-219
6.33239e-220
2.86185e-220
1.34344e-220
5.61689e-221
2.24549e-221
6.69133e-222
2.02705e-222
5.95414e-223
1.71938e-223
5.26165e-224
1.54729e-224
4.34037e-225
2.3136e-225
1.76998e-225
1.13515e-225
6.38005e-226
1.0487e-207
1.49683e-208
4.06617e-209
8.52144e-211
2.07108e-212
7.07952e-213
2.69021e-213
2.78738e-215
1.56872e-217
6.83297e-219
2.31578e-219
1.81463e-219
6.28563e-220
4.6762e-220
1.64336e-220
1.19502e-220
8.24503e-221
3.78476e-221
2.82636e-221
2.31465e-221
7.09961e-222
4.52318e-222
1.92043e-222
7.93797e-223
2.95104e-223
1.21574e-223
3.07937e-224
1.04646e-224
3.39509e-225
9.96617e-226
3.53906e-226
1.09902e-226
6.82783e-227
7.32451e-227
7.49254e-227
5.72561e-227
3.26382e-227
8.44091e-208
2.12463e-208
7.82117e-209
6.18731e-210
3.93489e-212
6.7227e-213
1.50936e-213
2.05935e-215
1.36848e-217
2.04373e-219
1.75491e-220
1.37556e-220
4.0518e-221
2.53963e-221
5.8298e-222
1.55635e-222
1.65479e-222
6.04417e-223
2.99549e-223
1.49592e-223
6.08968e-224
2.39702e-224
1.06156e-224
3.1149e-225
1.0053e-225
3.54682e-226
8.77355e-227
2.79272e-227
1.00306e-227
2.7684e-228
1.1879e-228
5.15948e-229
1.20461e-228
2.09228e-228
2.57902e-228
2.17025e-228
1.23219e-228
3.32543e-229
7.16715e-208
2.54929e-208
8.20852e-209
3.98711e-210
6.6345e-212
4.35444e-213
1.29969e-214
3.337e-216
1.70377e-218
3.15733e-220
5.09899e-221
5.24161e-222
2.0722e-222
5.01546e-223
2.94325e-223
7.55746e-224
3.61461e-224
1.6764e-224
7.35096e-225
2.75787e-225
1.03977e-225
4.39315e-226
9.53068e-227
3.15036e-227
7.11329e-228
1.5534e-228
4.07646e-229
8.94092e-230
2.71891e-230
6.98805e-231
3.19656e-231
3.10309e-231
1.08767e-230
2.8447e-230
4.95168e-230
4.54021e-230
2.47934e-230
5.46613e-231
5.87693e-208
2.49219e-208
7.13893e-209
8.93515e-210
1.58194e-210
3.89566e-212
3.75527e-214
1.9523e-216
3.57139e-218
9.68503e-219
2.44931e-219
8.82834e-221
1.17345e-222
2.44731e-222
6.54574e-222
4.18829e-223
7.77144e-225
4.61226e-226
1.04315e-226
3.86774e-227
1.44478e-227
6.68812e-228
1.60146e-228
3.95996e-229
8.6699e-230
1.83941e-230
3.81088e-231
7.1366e-232
1.70743e-232
3.67222e-233
1.27995e-233
1.47346e-233
4.45758e-233
1.04271e-232
2.6881e-232
3.28147e-232
1.87925e-232
4.96305e-208
2.3184e-208
6.92808e-209
1.41653e-209
2.16073e-210
7.15628e-212
1.13659e-213
3.9089e-215
3.47408e-216
1.22842e-216
5.77154e-217
3.98981e-218
1.22588e-220
8.90952e-221
3.41659e-220
2.25494e-221
4.69111e-223
6.75802e-225
7.1776e-227
9.25108e-229
2.08439e-229
7.77323e-230
2.17272e-230
4.59036e-231
1.161e-231
2.74601e-232
4.83779e-233
8.89664e-234
2.11604e-234
3.49516e-235
9.71977e-236
6.47437e-236
1.47663e-235
2.89869e-235
6.1799e-235
1.06367e-234
6.22327e-235
4.5909e-208
1.6232e-208
5.29607e-209
1.50928e-209
2.74047e-210
1.13673e-211
7.17927e-213
1.11756e-213
1.3231e-214
1.33261e-215
1.052e-216
4.68516e-218
8.04897e-219
1.31266e-218
1.75273e-218
1.31975e-219
3.27144e-221
2.81606e-223
3.30293e-225
3.37858e-227
3.2675e-229
3.38958e-231
2.08178e-232
3.03809e-233
1.69251e-233
2.56614e-234
5.32653e-235
1.00544e-235
2.27028e-236
3.81093e-237
8.46864e-238
3.73289e-238
5.25329e-238
8.39041e-238
1.43037e-237
2.21131e-237
1.28076e-237
3.80561e-208
1.48596e-208
5.89267e-209
2.80592e-209
1.00768e-209
3.4542e-210
1.0194e-210
2.43729e-211
4.32032e-212
5.72587e-213
5.83683e-214
3.78937e-215
1.03086e-216
8.61359e-217
6.14959e-217
5.18706e-218
1.2906e-219
1.08732e-221
1.5294e-223
1.65338e-225
2.03913e-227
1.94025e-229
1.2837e-231
2.34791e-233
2.03159e-235
3.41919e-236
5.00654e-237
1.20312e-237
2.24408e-238
4.70669e-239
8.06244e-240
3.24059e-240
2.58711e-240
2.90748e-240
3.25825e-240
3.52407e-240
1.69217e-240
3.47906e-208
1.50022e-208
6.16417e-209
3.14265e-209
1.37593e-209
3.82037e-210
3.25742e-211
7.3631e-212
1.26422e-212
1.43356e-213
1.87527e-214
5.14596e-215
4.37924e-215
6.04041e-215
1.88401e-215
1.78138e-216
4.13174e-218
3.62394e-220
5.78272e-222
7.82212e-224
1.34937e-225
2.10543e-227
8.22633e-230
1.12228e-231
8.94432e-234
9.65175e-236
8.06351e-239
4.37834e-240
1.03297e-240
2.03777e-241
4.78576e-242
2.05212e-242
1.22853e-242
1.09587e-242
7.66684e-243
8.42117e-243
2.35338e-243
2.8744e-208
1.71308e-208
9.44047e-209
5.92146e-209
3.52727e-209
1.62081e-209
4.91489e-210
1.08273e-210
2.10597e-211
4.66686e-212
1.15758e-212
4.42192e-213
2.27737e-213
9.30337e-214
2.13306e-214
2.21376e-215
8.57371e-217
8.68566e-219
1.81314e-220
4.48679e-222
1.0768e-223
1.16562e-225
2.30872e-228
3.6809e-230
4.59536e-232
2.80205e-234
1.10181e-237
7.04628e-241
2.76199e-243
4.78033e-244
1.58183e-244
7.4658e-245
4.52378e-245
3.00762e-245
1.44229e-245
1.06154e-245
2.29448e-246
1.64907e-207
6.74041e-208
3.25352e-209
1.88569e-209
1.36786e-209
9.71457e-210
5.50997e-210
9.24034e-211
4.10574e-212
9.71448e-214
1.82521e-215
3.8807e-216
2.30567e-216
2.09163e-216
1.62915e-216
1.53804e-216
1.36095e-216
1.17158e-216
1.09192e-216
1.07772e-216
1.04503e-216
9.19829e-217
6.04621e-217
3.34093e-217
1.74424e-217
8.30956e-218
3.38693e-218
1.17994e-218
3.61751e-219
1.02065e-219
2.85319e-220
7.83289e-221
2.04235e-221
5.32256e-222
1.35104e-222
3.10423e-223
6.32837e-224
1.1269e-224
7.99805e-208
7.57382e-209
4.65303e-210
5.15169e-210
1.70347e-210
1.86133e-210
3.66775e-211
3.46285e-212
4.18676e-214
9.71759e-216
8.87198e-217
5.5142e-217
3.61251e-217
2.71234e-217
1.97215e-217
1.85714e-217
1.88878e-217
1.68262e-217
1.60748e-217
1.49533e-217
1.21393e-217
8.29334e-218
4.68052e-218
2.40929e-218
1.13757e-218
4.68383e-219
1.64314e-219
5.09816e-220
1.4641e-220
4.04486e-221
1.10367e-221
2.92106e-222
7.37533e-223
1.79215e-223
4.11103e-224
1.67839e-224
7.39331e-225
1.80925e-225
7.25197e-208
3.55837e-209
2.68754e-210
8.01519e-211
1.01591e-211
1.18155e-211
7.89793e-213
4.21892e-214
3.85791e-216
3.31732e-217
1.29755e-217
8.62192e-218
4.9473e-218
3.28916e-218
1.84056e-218
1.33938e-218
1.56129e-218
1.4477e-218
1.29961e-218
1.12686e-218
7.35362e-219
4.36517e-219
2.26079e-219
1.06466e-219
4.48855e-220
1.66181e-220
5.23488e-221
1.51889e-221
4.28293e-222
1.17058e-222
3.19136e-223
8.34939e-224
1.99748e-224
5.12523e-225
1.65895e-225
9.55216e-226
4.22857e-226
3.23869e-208
2.4598e-209
4.19947e-210
3.10061e-211
9.65941e-213
3.60006e-213
8.9533e-214
1.62088e-215
2.42307e-217
2.08153e-218
8.87458e-219
6.07349e-219
2.70385e-219
1.544e-219
8.94066e-220
6.02384e-220
5.78101e-220
3.84972e-220
2.68709e-220
2.15929e-220
1.02891e-220
5.71943e-221
2.77501e-221
1.18335e-221
4.61707e-222
1.67675e-222
4.99514e-223
1.48854e-223
4.54234e-224
1.30112e-224
3.83282e-225
1.02405e-225
2.50526e-226
7.5284e-227
3.88518e-227
2.90767e-227
1.23188e-227
4.16805e-208
7.01495e-209
2.21815e-209
8.68263e-211
1.00033e-212
1.10003e-213
5.57906e-214
6.4555e-216
9.35419e-218
2.11231e-219
4.90898e-220
2.2914e-220
1.36052e-220
4.78833e-221
4.02814e-221
1.4626e-221
1.74059e-221
9.30171e-222
4.94786e-222
2.98268e-222
1.26368e-222
5.45957e-223
2.3013e-223
7.97783e-224
2.52929e-224
7.91596e-225
2.09114e-225
5.92026e-226
1.84486e-226
5.20643e-227
1.69396e-227
4.52178e-228
1.22841e-228
5.63277e-229
6.01396e-229
5.80719e-229
2.57625e-229
5.01027e-230
3.32784e-208
8.24579e-209
2.5741e-209
7.0411e-211
2.17517e-212
1.64365e-213
5.77721e-215
9.61202e-217
1.47666e-218
4.18363e-220
1.16269e-220
1.87207e-221
8.50791e-222
3.22812e-222
2.25857e-222
7.55435e-223
5.01012e-223
2.66764e-223
1.23217e-223
5.89563e-224
2.34223e-224
9.31128e-225
3.03245e-225
9.10483e-226
2.28316e-226
5.61832e-227
1.28383e-227
3.05075e-228
7.8234e-229
1.89148e-229
5.35351e-230
1.29339e-230
4.27095e-231
3.35454e-231
5.49071e-231
6.85352e-231
3.16965e-231
5.439e-232
2.61218e-208
8.37384e-209
2.39663e-209
4.2178e-210
7.98126e-211
2.92245e-212
4.91877e-214
6.4266e-216
7.22665e-218
4.251e-219
1.86717e-219
7.99018e-221
1.07395e-221
1.50723e-221
1.27644e-221
1.67615e-222
6.63254e-224
7.61138e-225
2.46221e-225
1.0542e-225
4.19101e-226
1.7521e-226
5.15062e-227
1.38687e-227
3.11678e-228
6.69278e-229
1.3842e-229
2.88902e-230
6.37213e-231
1.35171e-231
3.10151e-232
6.94959e-233
2.77687e-233
2.93362e-233
4.57769e-233
5.41343e-233
2.37299e-233
2.16411e-208
8.7423e-209
2.67983e-209
5.01594e-210
4.76754e-211
2.43238e-212
5.51489e-214
1.26844e-215
5.27134e-217
1.59601e-217
1.43262e-217
7.76707e-219
7.54447e-220
5.78053e-220
5.7843e-220
7.71903e-221
2.83025e-222
6.92939e-224
1.26492e-225
2.5436e-227
5.80941e-228
2.59573e-228
7.92422e-229
2.08467e-229
4.86044e-230
1.02952e-230
1.98557e-231
3.95391e-232
8.11731e-233
1.5418e-233
3.0995e-234
6.62815e-235
3.03191e-235
3.36668e-235
4.26503e-235
3.88536e-235
1.44846e-235
2.17261e-208
7.81611e-209
2.32733e-209
6.61485e-210
1.6847e-210
1.03225e-211
4.59887e-213
2.37156e-214
1.3704e-215
8.11878e-217
1.25549e-217
7.94791e-218
6.20898e-218
5.06428e-218
3.42894e-218
3.87727e-219
1.50867e-220
3.15166e-222
5.76168e-224
6.48125e-226
6.92412e-228
7.83539e-230
8.398e-231
1.93745e-231
6.51542e-232
1.35789e-232
2.60622e-233
5.3185e-234
1.05508e-234
1.93197e-235
3.62166e-236
7.98212e-237
3.94391e-237
3.93364e-237
3.92813e-237
2.66045e-237
8.23042e-238
1.87402e-208
7.97147e-209
2.7323e-209
1.28803e-209
5.34889e-210
1.63846e-210
2.53924e-211
2.0617e-212
1.65159e-213
1.32204e-214
1.21877e-215
5.85416e-216
4.16243e-216
2.86581e-216
1.20245e-216
1.44519e-217
5.69515e-219
1.24667e-220
2.405e-222
2.93138e-224
3.59683e-226
3.09745e-228
3.86676e-230
8.01681e-232
1.5848e-233
1.65424e-234
2.82751e-235
6.41169e-236
1.20456e-236
2.29875e-237
4.01354e-238
9.80515e-239
4.81834e-239
4.11058e-239
3.05152e-239
1.49709e-239
3.86388e-240
2.00649e-208
9.19197e-209
3.86196e-209
1.92759e-209
9.575e-210
1.84284e-210
1.85345e-211
2.89694e-212
5.23163e-213
1.20067e-213
3.3265e-214
1.66756e-214
1.26645e-214
9.58251e-215
3.26836e-215
4.12722e-216
1.71265e-217
4.21061e-219
8.34312e-221
1.06001e-222
1.51408e-224
2.00261e-226
2.7372e-228
4.81969e-230
8.18484e-232
5.82583e-234
9.12395e-237
3.95446e-238
7.26197e-239
1.45448e-239
2.65309e-240
8.06524e-241
4.02799e-241
3.08139e-241
1.65079e-241
6.8172e-242
1.41266e-242
2.43217e-208
1.53905e-208
9.1911e-209
5.88489e-209
3.49782e-209
1.57814e-209
4.70711e-210
1.09527e-210
2.5294e-211
6.55435e-212
1.8548e-212
6.72132e-213
3.02595e-213
1.22662e-213
3.18199e-214
4.42777e-215
2.52283e-216
8.26414e-218
1.99275e-219
3.12506e-221
5.531e-223
9.67562e-225
1.43578e-226
2.53497e-228
3.19255e-230
1.89218e-232
1.33843e-235
9.22047e-239
2.56857e-241
4.06914e-242
8.7333e-243
3.25624e-243
1.67104e-243
1.15688e-243
4.70495e-244
1.6771e-244
2.91371e-245
1.29111e-207
3.62416e-208
7.619e-209
2.1458e-209
5.53856e-210
1.82754e-210
1.01103e-210
9.73444e-212
3.48686e-213
8.83337e-215
7.63308e-216
4.50028e-216
3.07093e-216
2.64407e-216
2.14881e-216
1.85899e-216
1.57393e-216
1.3109e-216
1.19129e-216
1.15774e-216
1.09402e-216
9.04702e-217
5.85326e-217
3.36701e-217
1.76955e-217
8.12224e-218
3.1601e-218
1.05484e-218
3.15082e-219
8.8713e-220
2.40627e-220
6.33186e-221
1.6449e-221
4.09444e-222
9.66405e-223
2.13899e-223
3.81307e-224
4.83575e-225
4.15631e-208
2.60908e-209
3.917e-210
1.8631e-210
1.36838e-210
3.3609e-211
5.77434e-212
3.94159e-213
6.05765e-215
2.83462e-216
1.13381e-216
8.47735e-217
6.05187e-217
4.89297e-217
3.6673e-217
2.99974e-217
2.70362e-217
2.3334e-217
2.16263e-217
1.97968e-217
1.60294e-217
1.07172e-217
6.15241e-218
3.22612e-218
1.50464e-218
5.9909e-219
2.03898e-219
6.12455e-220
1.72324e-220
4.66371e-221
1.21046e-221
3.05212e-222
7.41163e-223
1.59677e-223
3.21669e-224
1.56556e-224
4.0987e-225
5.09041e-226
2.64982e-208
3.11861e-209
1.6251e-210
2.04753e-211
1.29177e-211
1.24379e-212
8.78524e-214
5.90191e-215
8.62097e-217
3.2586e-217
1.67773e-217
1.41317e-217
9.08434e-218
6.81569e-218
4.39307e-218
3.24338e-218
3.07172e-218
2.66294e-218
2.35137e-218
1.92056e-218
1.31718e-218
7.4954e-219
3.98666e-219
1.86314e-219
7.6188e-220
2.67516e-220
8.15285e-221
2.26169e-221
6.1638e-222
1.61493e-222
4.09207e-223
1.00293e-223
2.22096e-224
4.37763e-225
1.21214e-225
6.90249e-226
1.5394e-226
2.21322e-208
9.8867e-210
9.16293e-211
5.94154e-212
6.11586e-213
3.8166e-214
1.75941e-214
3.53436e-216
8.10881e-218
2.20087e-218
1.17078e-218
8.88099e-219
4.70581e-219
3.20166e-219
2.009e-219
1.37319e-219
1.1642e-219
9.12999e-220
6.73638e-220
4.86281e-220
2.72104e-220
1.387e-220
6.89053e-221
2.86414e-221
1.04876e-221
3.40867e-222
9.80465e-223
2.67845e-223
7.58214e-224
2.01727e-224
5.30405e-225
1.30805e-225
2.80906e-226
5.79158e-227
2.00422e-227
1.3345e-227
2.7546e-228
2.39256e-208
3.79269e-209
5.56429e-210
1.9545e-211
3.17663e-213
2.50298e-214
1.02856e-214
1.28031e-216
2.09743e-218
1.56439e-219
7.34479e-220
4.47203e-220
2.44921e-220
1.25246e-220
8.53047e-221
4.76489e-221
3.90374e-221
2.70755e-221
1.64274e-221
9.85249e-222
4.66015e-222
2.01256e-222
8.52056e-223
2.99429e-223
9.06679e-224
2.55312e-224
6.49724e-225
1.63862e-225
4.35724e-226
1.08998e-226
2.8464e-227
6.63155e-228
1.40098e-228
3.46866e-229
1.98016e-229
1.62e-229
3.7571e-230
4.33936e-231
2.69159e-208
3.86752e-209
6.16649e-210
2.49242e-211
8.25893e-213
1.49544e-213
3.03167e-215
5.54597e-217
9.006e-219
3.03087e-220
8.00726e-221
3.31912e-221
1.7529e-221
8.70694e-222
5.02472e-222
2.45695e-222
1.50187e-222
9.83496e-223
5.13188e-223
2.71604e-223
1.16788e-223
4.65712e-224
1.71274e-224
5.19207e-225
1.32122e-225
3.19314e-226
7.01295e-227
1.57666e-227
3.58068e-228
7.7981e-229
1.80007e-229
3.59192e-230
7.17345e-231
2.20968e-231
1.71732e-231
1.43653e-231
3.6301e-232
4.02512e-233
1.61504e-208
3.94362e-209
8.96585e-210
1.6344e-210
2.26884e-211
1.15742e-212
2.40803e-214
3.2581e-216
3.63391e-218
1.2707e-219
4.37183e-220
8.73667e-221
4.12139e-221
3.45349e-221
2.1989e-221
3.25083e-222
2.23909e-223
3.31411e-224
1.31396e-224
6.44371e-225
2.75185e-225
1.13898e-225
3.90646e-226
1.09168e-226
2.53727e-227
5.47915e-228
1.10598e-228
2.31952e-229
4.72799e-230
9.40666e-231
1.93015e-231
3.44987e-232
6.71402e-233
2.57615e-233
2.19902e-233
1.46102e-233
3.61696e-234
1.21866e-208
4.01534e-209
9.98773e-210
1.34293e-210
1.10889e-211
6.93295e-213
1.29731e-214
2.59809e-216
1.31929e-217
2.80395e-218
1.84856e-218
4.23631e-219
2.21876e-219
1.22961e-219
9.9063e-220
1.45775e-220
8.13961e-222
2.06784e-223
4.16739e-225
1.49028e-226
4.37249e-227
2.10089e-227
7.5297e-228
2.1816e-228
5.06056e-229
1.04152e-229
2.04049e-230
4.13335e-231
7.95643e-232
1.49775e-232
2.81895e-233
4.71923e-234
9.66699e-235
4.33244e-235
3.43931e-235
1.64832e-235
3.78866e-236
1.56781e-208
3.87361e-209
9.4958e-210
2.4946e-210
6.65764e-211
4.38859e-212
1.43461e-213
5.82495e-215
4.45816e-216
8.54619e-217
3.1819e-217
2.3436e-217
1.5395e-217
9.24353e-218
5.60189e-218
7.4759e-219
3.83607e-220
9.49677e-222
1.76925e-223
2.29269e-225
2.59613e-227
5.21068e-229
9.4748e-230
2.84806e-230
8.21163e-231
1.74756e-231
3.42954e-232
6.96782e-233
1.31376e-233
2.41508e-234
4.3259e-235
7.18639e-236
1.64861e-236
7.92964e-237
5.24989e-237
1.91175e-237
3.91087e-238
1.18594e-208
4.12275e-209
1.27722e-209
5.81661e-210
2.22897e-210
5.7293e-211
7.06577e-212
4.48264e-213
3.98973e-214
8.52335e-215
2.5584e-215
1.224e-215
8.54532e-216
4.89204e-216
1.96258e-216
2.74528e-217
1.40712e-218
3.59934e-220
6.88171e-222
9.73813e-224
1.1996e-225
1.55239e-227
2.63421e-229
3.10831e-231
1.77403e-232
2.43192e-233
4.55254e-234
9.62038e-235
1.79687e-235
3.30944e-236
5.77696e-237
1.01387e-237
2.66055e-238
1.29592e-238
6.6184e-239
1.96707e-239
3.46769e-240
1.30474e-208
4.73277e-209
1.9886e-209
1.0333e-209
5.30325e-210
8.61335e-211
1.38532e-211
2.94422e-212
8.03157e-213
2.64194e-213
8.81899e-214
3.68799e-214
2.03692e-214
1.39505e-214
5.12717e-215
7.56695e-216
4.27253e-217
1.13843e-218
2.17963e-220
3.29278e-222
4.3734e-224
7.15813e-226
1.67317e-227
1.95088e-229
7.58706e-231
1.67461e-232
3.22162e-235
8.28952e-237
1.45316e-237
2.70345e-238
4.82282e-239
9.57426e-240
2.95465e-240
1.43872e-240
5.66345e-241
1.45635e-241
2.19581e-242
1.92356e-208
1.26397e-208
8.50492e-209
5.70937e-209
3.28e-209
1.34568e-209
3.79408e-210
9.4228e-211
2.51503e-211
8.06425e-212
2.70531e-212
1.00315e-212
4.33766e-213
1.75567e-213
4.91788e-214
8.04526e-215
6.08998e-216
2.17672e-217
4.77848e-219
7.8213e-221
1.1035e-222
2.33047e-224
6.69867e-226
1.69661e-227
4.93569e-229
7.88002e-231
6.67992e-234
3.75195e-237
6.79216e-240
8.95337e-241
1.71549e-241
4.03486e-242
1.45563e-242
6.83032e-243
2.19297e-243
4.98133e-244
6.41715e-245
7.22904e-208
3.18763e-208
8.33738e-209
3.08964e-209
3.78525e-210
1.95394e-211
1.08209e-211
6.49722e-213
2.19675e-214
1.284e-215
6.66668e-216
4.77468e-216
3.56119e-216
3.04149e-216
2.58395e-216
2.17764e-216
1.80908e-216
1.4809e-216
1.31636e-216
1.26408e-216
1.17278e-216
9.28255e-217
5.99686e-217
3.53168e-217
1.8625e-217
8.36869e-218
3.16983e-218
1.02648e-218
3.01576e-219
8.38702e-220
2.20137e-220
5.65395e-221
1.4327e-221
3.35741e-222
7.57502e-223
1.56814e-223
2.41639e-224
2.42489e-225
1.90791e-208
1.82619e-209
4.32814e-210
4.10297e-210
6.53723e-211
4.87191e-212
5.8675e-213
2.80399e-214
6.69461e-216
1.85312e-216
1.25037e-216
9.86685e-217
7.72219e-217
6.48528e-217
5.20158e-217
4.06692e-217
3.46416e-217
2.93518e-217
2.6482e-217
2.40263e-217
1.93356e-217
1.28371e-217
7.4285e-218
3.93738e-218
1.82487e-218
7.14445e-219
2.37568e-219
6.95455e-220
1.9188e-220
5.03457e-221
1.24794e-221
3.03671e-222
7.06555e-223
1.33004e-223
2.62393e-224
1.27202e-224
2.15069e-225
1.49011e-226
1.7779e-208
8.61396e-210
5.4979e-211
1.31854e-211
2.69137e-212
1.97091e-213
8.45233e-215
3.91454e-216
3.14831e-217
2.86834e-217
1.7666e-217
1.55511e-217
1.20495e-217
9.60054e-218
7.26332e-218
5.14205e-218
4.50314e-218
3.86664e-218
3.3239e-218
2.7192e-218
1.86105e-218
1.06916e-218
5.664e-219
2.66852e-219
1.07469e-219
3.66928e-220
1.0789e-220
2.88826e-221
7.5535e-222
1.86831e-222
4.43185e-223
1.02273e-223
2.04473e-224
3.40977e-225
9.6502e-226
4.55637e-226
5.84202e-227
1.15455e-208
5.45846e-210
3.16505e-211
1.07185e-212
7.25158e-214
5.35974e-215
2.21878e-215
5.51815e-217
3.14014e-218
1.93265e-218
1.17524e-218
9.35746e-219
6.77181e-219
4.63043e-219
3.54851e-219
2.29414e-219
1.91487e-219
1.54181e-219
1.15556e-219
8.42161e-220
4.81309e-220
2.50615e-220
1.21893e-220
5.12957e-221
1.82179e-221
5.60003e-222
1.52024e-222
3.9107e-223
1.01119e-223
2.47294e-224
5.91228e-225
1.33155e-225
2.45996e-226
4.2758e-227
1.44475e-227
6.58914e-228
7.43204e-229
2.23511e-208
1.35689e-209
1.26561e-210
4.50978e-212
1.02705e-213
6.49907e-215
1.31769e-215
2.28136e-217
5.91796e-219
1.44623e-219
8.50334e-220
5.68002e-220
3.59915e-220
2.12442e-220
1.46828e-220
8.65619e-221
6.6456e-221
4.78701e-221
3.0163e-221
1.85972e-221
8.89722e-222
4.01192e-222
1.69438e-222
6.18048e-223
1.88138e-223
5.14367e-224
1.26871e-224
3.06614e-225
7.37809e-226
1.71398e-226
3.96129e-227
8.34223e-228
1.47501e-228
2.86395e-229
1.18979e-229
5.7547e-230
7.26688e-231
4.43219e-232
2.68126e-208
9.04457e-210
1.05347e-210
6.21217e-212
2.3516e-213
4.1441e-214
9.10598e-216
1.88375e-217
3.74342e-219
2.18166e-220
8.27363e-221
4.79262e-221
2.59688e-221
1.52264e-221
8.41121e-222
4.4074e-222
2.7461e-222
1.85221e-222
1.02316e-222
5.64079e-223
2.47557e-223
1.02706e-223
3.88744e-224
1.23822e-224
3.25254e-225
7.82961e-226
1.71128e-226
3.80597e-227
8.14456e-228
1.71079e-228
3.59625e-229
6.67274e-230
1.11043e-230
2.40153e-231
1.15195e-231
4.87536e-232
6.71103e-233
4.24808e-234
1.12021e-208
9.74977e-210
2.19872e-210
3.43559e-211
5.08343e-212
2.31543e-213
5.4504e-215
8.22631e-217
1.32524e-218
9.51122e-220
3.54621e-220
1.64414e-220
8.30911e-221
4.84317e-221
3.32207e-221
4.89482e-222
4.29692e-223
7.06135e-224
2.99122e-224
1.55248e-224
6.84846e-225
2.88652e-225
1.0352e-225
3.04424e-226
7.29794e-227
1.58822e-227
3.21909e-228
6.74452e-229
1.32782e-229
2.59527e-230
5.02379e-231
8.4487e-232
1.36311e-232
3.3269e-233
1.65446e-233
5.79082e-234
8.02575e-235
7.00778e-209
1.00142e-209
2.29583e-210
2.52227e-211
2.49218e-212
1.36579e-213
3.06579e-215
1.16415e-216
1.54759e-217
3.2668e-218
1.27651e-218
7.1958e-219
4.26249e-219
1.8767e-219
1.46853e-219
2.17843e-220
1.48724e-221
4.33745e-223
9.45696e-225
4.09835e-226
1.30447e-226
6.28838e-227
2.3774e-227
7.23278e-228
1.68743e-228
3.4867e-229
6.89264e-230
1.39972e-230
2.632e-231
4.92491e-232
8.91065e-233
1.40616e-233
2.29569e-234
6.24566e-235
2.9027e-235
8.15657e-236
1.10006e-236
1.37206e-208
1.34901e-209
2.84002e-210
8.42114e-211
1.55932e-211
1.16073e-212
4.77755e-214
3.89707e-215
7.77645e-216
1.94472e-216
6.98622e-217
4.19148e-217
2.82919e-217
1.40039e-217
7.92084e-218
1.1594e-218
6.91251e-220
2.01502e-221
4.01453e-223
5.35167e-225
6.47649e-227
1.64415e-228
3.63552e-229
1.24827e-229
3.23376e-230
6.77948e-231
1.34155e-231
2.72393e-232
5.0535e-233
9.30413e-234
1.6178e-234
2.51228e-235
4.35846e-236
1.27712e-236
5.15445e-237
1.20554e-237
1.52471e-238
6.47443e-209
1.67046e-209
5.08792e-210
2.20228e-210
7.97732e-211
1.84838e-211
2.03966e-212
2.27348e-213
5.37742e-214
1.57124e-214
4.91255e-215
2.2196e-215
1.36395e-215
7.35427e-216
2.85343e-216
4.38847e-217
2.64328e-218
7.90525e-220
1.62575e-221
2.30501e-223
3.01134e-225
4.4268e-227
4.70975e-229
5.31369e-231
5.31861e-232
9.85035e-233
2.01886e-233
4.16542e-234
7.76559e-235
1.43114e-235
2.46573e-236
3.97236e-237
7.61722e-238
2.30346e-238
7.87891e-239
1.57508e-239
1.80023e-240
8.25222e-209
2.10708e-209
1.00526e-209
5.32107e-210
2.82907e-210
5.2865e-211
1.03819e-211
2.90206e-212
1.05655e-212
4.04438e-213
1.42765e-213
5.62685e-214
2.86272e-214
1.87856e-214
7.15387e-215
1.19114e-215
8.36882e-217
2.62853e-218
5.46729e-220
8.02534e-222
1.22342e-223
2.08505e-225
2.82117e-227
3.07091e-229
1.10729e-230
4.98623e-233
2.84136e-235
3.79648e-236
7.07345e-237
1.30231e-237
2.31027e-238
4.02452e-239
8.9237e-240
2.73047e-240
8.02009e-241
1.41068e-241
1.44231e-242
1.56574e-208
1.03851e-208
7.91593e-209
5.3261e-209
2.68492e-209
9.29735e-210
2.50024e-210
6.76048e-211
2.2374e-211
8.5859e-212
3.29128e-212
1.26926e-212
5.49364e-213
2.25935e-213
6.71894e-214
1.24467e-214
1.20702e-215
5.37449e-217
1.26843e-218
2.08662e-220
3.31635e-222
6.83388e-224
1.5754e-225
3.31417e-227
6.21809e-229
1.89993e-231
1.33819e-234
9.00485e-238
2.53822e-239
4.5927e-240
8.6451e-241
1.67804e-241
4.38197e-242
1.32741e-242
3.40258e-243
5.3638e-244
4.90639e-245
5.72567e-208
2.40145e-208
8.82886e-209
3.95458e-209
9.41322e-210
3.46523e-211
9.4983e-213
3.19413e-214
1.72044e-215
7.31665e-216
6.29703e-216
4.71073e-216
3.69189e-216
3.17775e-216
2.83037e-216
2.42356e-216
2.0184e-216
1.64536e-216
1.44177e-216
1.37099e-216
1.25745e-216
9.77838e-217
6.37198e-217
3.78701e-217
1.99045e-217
8.83975e-218
3.27663e-218
1.04243e-218
3.03947e-219
8.30929e-220
2.1266e-220
5.38517e-221
1.31779e-221
2.94286e-222
6.43806e-223
1.23766e-223
1.67208e-224
1.43998e-225
6.61013e-209
1.41404e-209
6.38946e-210
4.68655e-210
1.5593e-210
3.35355e-212
8.21498e-214
2.11232e-215
1.89567e-216
1.54009e-216
1.21005e-216
9.95233e-217
8.38372e-217
7.27331e-217
6.22374e-217
4.97115e-217
4.14116e-217
3.47317e-217
3.08111e-217
2.77262e-217
2.22528e-217
1.48008e-217
8.61693e-218
4.57396e-218
2.11332e-218
8.22591e-219
2.69306e-219
7.76621e-220
2.10883e-220
5.36377e-221
1.2869e-221
3.05107e-222
6.6638e-223
1.1369e-223
2.41812e-224
1.01754e-224
1.25813e-225
6.07333e-227
6.27973e-209
6.3583e-210
6.2338e-211
1.44622e-211
5.66213e-212
9.91928e-214
1.50335e-215
4.94983e-217
2.13749e-217
2.25852e-217
1.67686e-217
1.55527e-217
1.32844e-217
1.13975e-217
9.48468e-218
6.91885e-218
5.81027e-218
4.96299e-218
4.22756e-218
3.44969e-218
2.37579e-218
1.37629e-218
7.28561e-219
3.43896e-219
1.38355e-219
4.67345e-220
1.34363e-220
3.51121e-221
8.86861e-222
2.08184e-222
4.70987e-223
1.03327e-223
1.85308e-224
2.83048e-225
8.8197e-226
3.25918e-226
2.94349e-227
7.5204e-209
3.20834e-210
1.40701e-211
6.44382e-213
7.59772e-214
1.84202e-215
2.34695e-216
8.20959e-218
1.65288e-218
1.45897e-218
1.07251e-218
9.37724e-219
7.76649e-219
6.08745e-219
4.89518e-219
3.32467e-219
2.68034e-219
2.22085e-219
1.69021e-219
1.22719e-219
7.25266e-220
3.79828e-220
1.84258e-220
7.79166e-221
2.76496e-221
8.29908e-222
2.17681e-222
5.38907e-223
1.31086e-223
2.97958e-224
6.6677e-225
1.39203e-225
2.27322e-226
3.69095e-227
1.33081e-227
4.73492e-228
3.47413e-229
1.1337e-208
6.49735e-210
4.14025e-211
1.55333e-212
4.14229e-214
1.83345e-215
1.49182e-216
3.8088e-218
2.16236e-219
1.13642e-219
8.1021e-220
6.0557e-220
3.94634e-220
2.8575e-220
1.94447e-220
1.25937e-220
9.16714e-221
6.83288e-221
4.41622e-221
2.72471e-221
1.34896e-221
6.16856e-222
2.63256e-222
9.74302e-223
3.03133e-223
8.18335e-224
1.98309e-224
4.74363e-225
1.09167e-225
2.41694e-226
5.30876e-227
1.03915e-227
1.64389e-228
3.01617e-229
1.22484e-229
4.01014e-230
2.9103e-231
8.95884e-233
1.63611e-208
4.04658e-210
2.37857e-211
1.32927e-212
7.82935e-214
5.99757e-215
1.78831e-216
4.36553e-218
1.09458e-219
1.48477e-220
7.81103e-221
5.16957e-221
2.84843e-221
1.8913e-221
1.06675e-221
6.11283e-222
3.73954e-222
2.59304e-222
1.4898e-222
8.29409e-223
3.73874e-223
1.57551e-223
6.08357e-224
1.98919e-224
5.41792e-225
1.29923e-225
2.83956e-226
6.3257e-227
1.32478e-227
2.73103e-228
5.5898e-229
9.85643e-230
1.51259e-230
3.08297e-231
1.29604e-231
3.55861e-232
2.66681e-233
8.95384e-235
1.00711e-208
4.3309e-210
5.03823e-211
5.43419e-212
9.12847e-213
3.47899e-214
9.65374e-216
1.71835e-217
6.15592e-219
1.28224e-219
5.61688e-220
2.57023e-220
1.35818e-220
6.69345e-221
3.84823e-221
6.4198e-222
6.24342e-223
1.05894e-223
4.62274e-224
2.4584e-224
1.10492e-224
4.63832e-225
1.69009e-225
5.12427e-226
1.2714e-226
2.78693e-227
5.69743e-228
1.19713e-228
2.33769e-229
4.53761e-230
8.66787e-231
1.40917e-231
2.14388e-232
4.82556e-233
1.91102e-233
4.40585e-234
3.35959e-235
4.13236e-209
3.19872e-210
4.91225e-211
4.76316e-212
5.07816e-213
2.76964e-214
9.77817e-216
8.97926e-217
2.01075e-217
5.43128e-218
2.16313e-218
1.12947e-218
6.97218e-219
2.78568e-219
1.73359e-219
2.86255e-220
2.1696e-221
7.27378e-223
1.64802e-224
7.53277e-226
2.43511e-226
1.12129e-226
4.21388e-227
1.29245e-227
3.07402e-228
6.42675e-229
1.28766e-229
2.63729e-230
4.974e-231
9.34004e-232
1.68145e-232
2.59688e-233
4.02182e-234
9.76543e-235
3.43989e-235
6.55844e-236
5.11095e-237
9.26446e-209
6.1871e-210
9.49002e-211
2.44804e-211
3.76247e-212
3.20321e-213
2.21196e-214
3.78113e-215
1.06794e-215
3.02068e-216
1.11308e-216
6.28093e-217
4.50209e-217
2.06068e-217
9.94253e-218
1.56455e-218
1.04984e-219
3.48222e-221
7.23379e-223
9.99267e-225
1.11587e-226
2.79517e-228
7.38965e-229
2.55367e-229
6.28436e-230
1.3022e-230
2.61873e-231
5.38811e-232
1.01287e-232
1.89738e-233
3.29626e-234
5.0691e-235
8.33013e-236
2.11533e-236
6.48883e-237
1.05417e-237
8.14077e-239
3.79147e-209
7.23831e-210
2.16779e-210
7.83295e-211
3.02481e-211
6.78619e-212
8.89555e-213
1.99524e-213
6.92155e-214
2.2227e-214
7.22303e-215
3.14638e-215
1.93415e-215
1.03222e-215
3.7961e-216
6.1922e-217
4.31903e-218
1.47911e-219
3.22287e-221
4.68451e-223
5.38681e-225
5.38145e-227
3.83414e-229
5.96641e-231
9.31371e-232
1.90958e-232
3.97693e-233
8.22997e-234
1.5759e-234
3.01547e-235
5.23959e-236
8.5612e-237
1.55892e-237
4.01867e-238
1.06694e-238
1.51062e-239
1.11336e-240
5.86352e-209
1.24062e-209
7.29938e-210
3.10829e-210
1.70267e-210
3.24334e-211
7.73164e-212
2.70974e-212
1.18802e-212
5.00478e-213
1.85201e-213
7.17513e-214
3.60917e-214
2.3603e-214
9.09597e-215
1.65224e-215
1.4056e-216
5.36318e-218
1.21822e-219
1.85181e-221
2.37697e-223
2.48306e-225
2.12627e-227
2.15454e-229
4.05997e-231
1.28833e-233
4.01255e-235
7.19389e-236
1.37967e-236
2.65842e-237
4.859e-238
8.96311e-239
1.91189e-239
4.92029e-240
1.14527e-240
1.44764e-241
1.00219e-242
1.26623e-208
8.69652e-209
7.5545e-209
4.68958e-209
1.8401e-209
5.63316e-210
1.54427e-210
4.74165e-211
1.87212e-211
8.43471e-212
3.57519e-212
1.43418e-212
6.30125e-213
2.6565e-213
8.30778e-214
1.69562e-214
1.99142e-215
1.14495e-216
3.14897e-218
5.48297e-220
7.97835e-222
9.04243e-224
1.18444e-225
2.00414e-227
2.14235e-229
2.75932e-232
1.97687e-235
3.89678e-238
4.76534e-239
8.90016e-240
1.73806e-240
3.67886e-241
9.49826e-242
2.38511e-242
4.91164e-243
5.61411e-244
3.60624e-245
3.63124e-208
2.17213e-208
8.32933e-209
4.1812e-209
9.93611e-210
4.29601e-211
2.5629e-213
2.58373e-215
6.27525e-216
5.71813e-216
5.42241e-216
4.39478e-216
3.61408e-216
3.15941e-216
2.88456e-216
2.56283e-216
2.17376e-216
1.78621e-216
1.55524e-216
1.46798e-216
1.33529e-216
1.03235e-216
6.78175e-217