/*--------------------------------*- C++ -*----------------------------------*\
| =========                 |                                                 |
| \\      /  F ield         | OpenFOAM: The Open Source CFD Toolbox           |
|  \\    /   O peration     | Version:  2.3.1                                 |
|   \\  /    A nd           | Web:      www.OpenFOAM.org                      |
|    \\/     M anipulation  |                                                 |
\*---------------------------------------------------------------------------*/
FoamFile
{
    version     2.0;
    format      ascii;
    class       volScalarField;
    location    "10";
    object      Sed_0;
}
// * * * * * * * * * * * * * * * * * * * * * * * * * * * * * * * * * * * * * //

dimensions      [0 0 0 0 0 0 0];

internalField   nonuniform List<scalar> 
37632
(
6.27235e-207
8.3698e-208
7.97766e-209
3.09967e-209
1.43883e-209
1.40718e-209
1.21752e-209
3.24639e-210
1.99301e-211
4.88174e-213
5.44265e-215
3.40689e-216
1.72684e-216
1.64411e-216
1.28377e-216
1.32521e-216
1.25663e-216
1.11184e-216
1.05398e-216
1.05534e-216
1.05931e-216
9.98857e-217
6.99302e-217
3.58771e-217
1.87004e-217
9.35044e-218
3.98388e-218
1.43499e-218
4.45143e-219
1.25639e-219
3.60659e-220
1.01465e-220
2.62775e-221
6.97062e-222
1.88085e-222
4.50305e-223
9.70996e-224
2.11159e-224
1.69115e-207
6.06142e-209
1.25789e-209
3.04729e-210
8.99991e-211
1.09461e-210
7.67364e-211
7.15845e-212
4.63627e-214
8.743e-216
3.73e-217
2.1521e-217
1.21862e-217
9.61108e-218
6.98849e-218
7.82127e-218
7.88097e-218
7.57267e-218
7.32277e-218
6.39609e-218
5.03218e-218
3.38028e-218
1.7919e-218
8.58525e-219
4.04443e-219
1.71879e-219
6.03872e-220
1.88654e-220
5.43793e-221
1.52144e-221
4.37639e-222
1.24342e-222
3.30634e-223
8.80136e-224
4.04483e-224
1.66106e-224
8.16848e-225
2.97341e-225
1.47472e-207
9.81655e-209
3.78499e-210
6.31938e-211
3.76115e-212
2.64212e-212
2.1548e-212
1.93638e-214
1.25482e-216
1.58397e-217
5.73239e-218
4.16168e-218
2.10493e-218
1.60648e-218
5.62867e-219
2.93916e-219
2.57091e-219
2.24347e-219
2.12439e-219
1.63084e-219
1.05199e-219
6.2852e-220
2.83665e-220
1.32916e-220
5.54513e-221
2.21175e-221
6.57845e-222
1.98991e-222
5.83993e-223
1.68579e-223
5.15653e-224
1.51515e-224
4.25066e-225
2.27583e-225
1.73987e-225
1.1146e-225
6.24925e-226
1.01039e-207
1.47789e-208
4.11723e-209
8.40008e-211
2.04589e-212
7.05566e-213
2.67445e-213
2.77843e-215
1.55417e-217
6.79403e-219
2.31206e-219
1.81192e-219
6.27266e-220
4.66907e-220
1.63992e-220
1.1902e-220
8.22662e-221
3.76961e-221
2.80862e-221
2.30124e-221
7.04528e-222
4.47471e-222
1.89872e-222
7.83493e-223
2.9052e-223
1.19482e-223
3.02257e-224
1.02586e-224
3.32721e-225
9.76436e-226
3.46581e-226
1.07638e-226
6.71866e-227
7.22275e-227
7.37279e-227
5.62132e-227
3.19566e-227
8.25383e-208
2.13508e-208
7.70693e-209
5.8791e-210
3.75072e-212
6.67764e-213
1.49788e-213
2.03476e-215
1.34024e-217
2.02228e-219
1.74688e-220
1.37004e-220
4.03907e-221
2.53519e-221
5.80462e-222
1.54603e-222
1.64108e-222
6.00809e-223
2.96999e-223
1.4816e-223
6.02027e-224
2.36472e-224
1.04666e-224
3.06639e-225
9.87045e-226
3.47931e-226
8.5981e-227
2.73453e-227
9.82279e-228
2.7103e-228
1.16327e-228
5.07416e-229
1.19039e-228
2.06504e-228
2.53886e-228
2.1303e-228
1.20566e-228
3.23759e-229
7.01033e-208
2.52717e-208
7.96115e-209
3.69922e-210
6.58637e-212
4.36246e-213
1.29351e-214
3.27274e-216
1.66441e-218
3.12717e-220
5.06372e-221
5.21956e-222
2.0558e-222
4.95617e-223
2.91087e-223
7.44704e-224
3.58214e-224
1.66018e-224
7.27225e-225
2.72389e-225
1.02467e-225
4.3245e-226
9.37106e-227
3.09085e-227
6.97021e-228
1.52001e-228
3.98677e-229
8.74211e-230
2.65865e-230
6.83482e-231
3.13294e-231
3.0697e-231
1.07936e-230
2.81319e-230
4.8782e-230
4.45552e-230
2.42321e-230
5.311e-231
5.77768e-208
2.45587e-208
6.86805e-209
8.76771e-210
1.58822e-210
3.91283e-212
3.73928e-214
1.92763e-216
3.54697e-218
9.70163e-219
2.44307e-219
8.69353e-221
1.14835e-222
2.37241e-222
6.32497e-222
4.01761e-223
7.40326e-225
4.48659e-226
1.02807e-226
3.81391e-227
1.42065e-227
6.57093e-228
1.57128e-228
3.87894e-229
8.47818e-230
1.7967e-230
3.72197e-231
6.96659e-232
1.66655e-232
3.58608e-233
1.25394e-233
1.45716e-233
4.41416e-233
1.03108e-232
2.65409e-232
3.22204e-232
1.83482e-232
4.94214e-208
2.26779e-208
6.68568e-209
1.38434e-209
2.14316e-210
7.12216e-212
1.11639e-213
3.85968e-215
3.45639e-216
1.2361e-216
5.78891e-217
3.94282e-218
1.20119e-220
8.66032e-221
3.30042e-220
2.1645e-221
4.46888e-223
6.41776e-225
6.7916e-227
8.85103e-229
2.04008e-229
7.62597e-230
2.12909e-230
4.49171e-231
1.13336e-231
2.67969e-232
4.72068e-233
8.67278e-234
2.06276e-234
3.40697e-235
9.5025e-236
6.38658e-236
1.46029e-235
2.86426e-235
6.09438e-235
1.04614e-234
6.07255e-235
4.53642e-208
1.56785e-208
5.17791e-209
1.50923e-209
2.77943e-210
1.14512e-211
7.07778e-213
1.08698e-213
1.27545e-214
1.27308e-215
1.00159e-216
4.4234e-218
7.90106e-219
1.2998e-218
1.69627e-218
1.26668e-219
3.12342e-221
2.68254e-223
3.13038e-225
3.1924e-227
3.07988e-229
3.21388e-231
2.02828e-232
2.96186e-233
1.65066e-233
2.50325e-234
5.19209e-235
9.79249e-236
2.21074e-236
3.7103e-237
8.26168e-238
3.66865e-238
5.18724e-238
8.28568e-238
1.41042e-237
2.17698e-237
1.24922e-237
3.75067e-208
1.46128e-208
5.84158e-209
2.81867e-209
1.01149e-209
3.44541e-210
1.01052e-210
2.39519e-211
4.20084e-212
5.50568e-213
5.55373e-214
3.55097e-215
9.8186e-217
8.53044e-217
5.96198e-217
4.98721e-218
1.2353e-219
1.0388e-221
1.45454e-223
1.56817e-225
1.92836e-227
1.8286e-229
1.20309e-231
2.20385e-233
1.94367e-235
3.32548e-236
4.87755e-237
1.17087e-237
2.18314e-238
4.57896e-239
7.85885e-240
3.17841e-240
2.54831e-240
2.86505e-240
3.20806e-240
3.46631e-240
1.65021e-240
3.43364e-208
1.47592e-208
6.13382e-209
3.15193e-209
1.38269e-209
3.80583e-210
3.19183e-211
7.15301e-212
1.21737e-212
1.3742e-213
1.804e-214
5.06739e-215
4.33533e-215
5.95556e-215
1.83056e-215
1.7175e-216
3.96462e-218
3.47008e-220
5.52066e-222
7.44839e-224
1.28112e-225
1.99263e-227
7.74172e-230
1.05457e-231
8.36699e-234
9.03997e-236
7.64466e-239
4.2522e-240
1.00447e-240
1.98279e-241
4.67197e-242
2.01275e-242
1.20861e-242
1.07724e-242
7.53091e-243
8.26791e-243
2.29378e-243
2.82958e-208
1.68154e-208
9.38034e-209
5.89676e-209
3.47848e-209
1.57085e-209
4.69662e-210
1.03022e-210
2.01721e-211
4.52894e-212
1.13588e-212
4.37075e-213
2.25052e-213
9.13182e-214
2.07863e-214
2.1433e-215
8.26513e-217
8.35881e-219
1.73938e-220
4.2923e-222
1.02676e-223
1.10674e-225
2.18229e-228
3.46616e-230
4.30584e-232
2.62441e-234
1.03373e-237
6.6503e-241
2.67567e-243
4.65258e-244
1.54689e-244
7.32555e-245
4.44733e-245
2.95072e-245
1.41478e-245
1.04033e-245
2.23354e-246
1.60416e-207
6.24572e-208
3.097e-209
1.8522e-209
1.36542e-209
9.65267e-210
5.32003e-210
8.5012e-211
3.66371e-212
8.52062e-214
1.65333e-215
3.87084e-216
2.31109e-216
2.09664e-216
1.63377e-216
1.54203e-216
1.36392e-216
1.17393e-216
1.09439e-216
1.08004e-216
1.04665e-216
9.19262e-217
6.02024e-217
3.32267e-217
1.73221e-217
8.23509e-218
3.34807e-218
1.16357e-218
3.56005e-219
1.00312e-219
2.80177e-220
7.68377e-221
2.00186e-221
5.2142e-222
1.32238e-222
3.03448e-223
6.17901e-224
1.09899e-224
7.78227e-208
7.32947e-209
4.55896e-210
5.04694e-210
1.69061e-210
1.83783e-210
3.50879e-211
3.11595e-212
3.70083e-214
8.54941e-216
8.75802e-217
5.52095e-217
3.61836e-217
2.71749e-217
1.97599e-217
1.86066e-217
1.89177e-217
1.68504e-217
1.60944e-217
1.4958e-217
1.21233e-217
8.26118e-218
4.65328e-218
2.39176e-218
1.12706e-218
4.62908e-219
1.62016e-219
5.01704e-220
1.43867e-220
3.97058e-221
1.08255e-221
2.86265e-222
7.22197e-223
1.75372e-223
4.0201e-224
1.64809e-224
7.23355e-225
1.76499e-225
7.20445e-208
3.48164e-209
2.65618e-210
7.85611e-211
9.82453e-212
1.15101e-211
7.48303e-213
3.75548e-214
3.42698e-216
3.2257e-217
1.29632e-217
8.62323e-218
4.94931e-218
3.29064e-218
1.84143e-218
1.34031e-218
1.56311e-218
1.44853e-218
1.29935e-218
1.12479e-218
7.32659e-219
4.33872e-219
2.24356e-219
1.05474e-219
4.43662e-220
1.63854e-220
5.15111e-221
1.49223e-221
4.20306e-222
1.14788e-222
3.12745e-223
8.17509e-224
1.95368e-224
5.01945e-225
1.6257e-225
9.37492e-226
4.13389e-226
3.1465e-208
2.43011e-209
4.17208e-210
2.99447e-211
9.46154e-213
3.52416e-213
8.94297e-214
1.58793e-215
2.38031e-217
2.07229e-218
8.85776e-219
6.06726e-219
2.70158e-219
1.54206e-219
8.93189e-220
6.01229e-220
5.77011e-220
3.84333e-220
2.67817e-220
2.14921e-220
1.02269e-220
5.67084e-221
2.74777e-221
1.16968e-221
4.55253e-222
1.64986e-222
4.90694e-223
1.46045e-223
4.45338e-224
1.275e-224
3.7533e-225
1.00186e-225
2.4491e-226
7.38021e-227
3.8158e-227
2.85251e-227
1.20337e-227
4.05243e-208
6.91996e-209
2.18702e-209
8.20387e-211
9.68726e-213
1.08946e-213
5.50647e-214
6.34199e-216
9.14621e-218
2.07993e-219
4.88547e-220
2.28498e-220
1.35784e-220
4.77394e-221
4.01717e-221
1.45686e-221
1.73123e-221
9.26085e-222
4.91556e-222
2.95886e-222
1.25181e-222
5.39716e-223
2.2721e-223
7.86327e-224
2.48715e-224
7.77187e-225
2.05042e-225
5.80009e-226
1.80701e-226
5.09763e-227
1.6574e-227
4.42028e-228
1.20136e-228
5.53619e-229
5.92204e-229
5.69614e-229
2.51651e-229
4.8689e-230
3.2562e-208
8.17273e-209
2.47881e-209
6.90351e-211
2.17609e-212
1.64381e-213
5.72828e-215
9.43642e-217
1.44408e-218
4.12811e-220
1.15442e-220
1.86077e-221
8.45533e-222
3.20192e-222
2.233e-222
7.484e-223
4.97139e-223
2.64738e-223
1.22093e-223
5.83194e-224
2.31334e-224
9.18086e-225
2.98595e-225
8.94902e-226
2.2397e-226
5.50382e-227
1.25646e-227
2.98414e-228
7.65201e-229
1.84925e-229
5.23119e-230
1.26336e-230
4.18534e-231
3.30743e-231
5.4201e-231
6.72534e-231
3.09448e-231
5.27671e-232
2.5854e-208
8.28696e-209
2.32674e-209
4.21849e-210
7.97065e-211
2.91694e-212
4.86352e-214
6.29763e-216
7.07253e-218
4.23e-219
1.85183e-219
7.86037e-221
1.05081e-221
1.47694e-221
1.23061e-221
1.6067e-222
6.35318e-224
7.46254e-225
2.43135e-225
1.04079e-225
4.1296e-226
1.72391e-226
5.06028e-227
1.36018e-227
3.05143e-228
6.54472e-229
1.35274e-229
2.82222e-230
6.22384e-231
1.31969e-231
3.02684e-232
6.78732e-233
2.72558e-233
2.89588e-233
4.51777e-233
5.31234e-233
2.31554e-233
2.14734e-208
8.6211e-209
2.6165e-209
4.97224e-210
4.74539e-211
2.40677e-212
5.39368e-214
1.23658e-215
5.22354e-217
1.60216e-217
1.42854e-217
7.63418e-219
7.40359e-220
5.68879e-220
5.59072e-220
7.4076e-221
2.69808e-222
6.57506e-224
1.19782e-225
2.45253e-227
5.69771e-228
2.54973e-228
7.77277e-229
2.04137e-229
4.75137e-230
1.00548e-230
1.93832e-231
3.85795e-232
7.91843e-233
1.50334e-233
3.02141e-234
6.47488e-235
2.97985e-235
3.32028e-235
4.20406e-235
3.81051e-235
1.41295e-235
2.14476e-208
7.67603e-209
2.29776e-209
6.64372e-210
1.70753e-210
1.03008e-211
4.49673e-213
2.29304e-214
1.31399e-215
7.77439e-217
1.22769e-217
7.80656e-218
6.11473e-218
4.98567e-218
3.32037e-218
3.72538e-219
1.44088e-220
2.99825e-222
5.46354e-224
6.12822e-226
6.5311e-228
7.47373e-230
8.19824e-231
1.89321e-231
6.36275e-232
1.32517e-232
2.54196e-233
5.1843e-234
1.02814e-234
1.88173e-235
3.52731e-236
7.80003e-237
3.87859e-237
3.87634e-237
3.8646e-237
2.60646e-237
8.02422e-238
1.84289e-208
7.86567e-209
2.71845e-209
1.2956e-209
5.36291e-210
1.62587e-210
2.49915e-211
2.0122e-212
1.59513e-213
1.2649e-214
1.17126e-215
5.69153e-216
4.11756e-216
2.81969e-216
1.16796e-216
1.39165e-217
5.45363e-219
1.18957e-220
2.28796e-222
2.78125e-224
3.40304e-226
2.92269e-228
3.63396e-230
7.53307e-232
1.5059e-233
1.60985e-234
2.75569e-235
6.24443e-236
1.17273e-236
2.23709e-237
3.90733e-238
9.58508e-239
4.73746e-239
4.04677e-239
2.99668e-239
1.46462e-239
3.76406e-240
1.97223e-208
9.05482e-209
3.84517e-209
1.92825e-209
9.57289e-210
1.81412e-210
1.78334e-211
2.78902e-212
5.06532e-213
1.17144e-213
3.26932e-214
1.64833e-214
1.25239e-214
9.4538e-215
3.1823e-215
3.98666e-216
1.64454e-217
4.02935e-219
7.96405e-221
1.00946e-222
1.43776e-224
1.89698e-226
2.58249e-228
4.53863e-230
7.67486e-232
5.45226e-234
8.60657e-237
3.84395e-238
7.06559e-239
1.41485e-239
2.58356e-240
7.8922e-241
3.95869e-241
3.02956e-241
1.61833e-241
6.66446e-242
1.37479e-242
2.38599e-208
1.51017e-208
9.13573e-209
5.85411e-209
3.43583e-209
1.52224e-209
4.48443e-210
1.04157e-210
2.42712e-211
6.37079e-212
1.82039e-212
6.63184e-213
2.98707e-213
1.20494e-213
3.10658e-214
4.29558e-215
2.43282e-216
7.94116e-218
1.91038e-219
2.98962e-221
5.27487e-223
9.20049e-225
1.3606e-226
2.39267e-228
2.99909e-230
1.77363e-232
1.25313e-235
8.64962e-239
2.47947e-241
3.95757e-242
8.51234e-243
3.19008e-243
1.64135e-243
1.13566e-243
4.60652e-244
1.63825e-244
2.83254e-245
1.26052e-207
3.42528e-208
7.37714e-209
2.10259e-209
5.42088e-210
1.79565e-210
9.5349e-211
8.76985e-212
3.07399e-213
7.77606e-215
7.46289e-216
4.50372e-216
3.07694e-216
2.64972e-216
2.15428e-216
1.86352e-216
1.57722e-216
1.31355e-216
1.19404e-216
1.16021e-216
1.09546e-216
9.03466e-217
5.83282e-217
3.3499e-217
1.75727e-217
8.04672e-218
3.12278e-218
1.04e-218
3.10089e-219
8.71908e-220
2.36237e-220
6.21088e-221
1.61225e-221
4.00952e-222
9.45688e-223
2.09045e-223
3.71832e-224
4.70484e-225
3.97075e-208
2.51008e-209
3.84389e-210
1.82848e-210
1.32976e-210
3.28539e-211
5.38257e-212
3.50174e-213
5.30026e-215
2.68026e-216
1.13225e-216
8.4834e-217
6.05986e-217
4.90034e-217
3.67383e-217
3.00489e-217
2.70737e-217
2.33653e-217
2.1652e-217
1.98031e-217
1.6007e-217
1.06765e-217
6.11852e-218
3.20296e-218
1.49053e-218
5.91967e-219
2.01006e-219
6.02633e-220
1.69323e-220
4.57726e-221
1.1869e-221
2.99054e-222
7.25471e-223
1.56099e-223
3.14568e-224
1.53526e-224
3.99637e-225
4.94838e-226
2.56928e-208
3.03625e-209
1.60198e-210
2.02935e-211
1.24514e-211
1.19864e-212
8.14804e-214
5.19826e-215
7.90406e-217
3.2496e-217
1.67601e-217
1.41298e-217
9.08851e-218
6.81844e-218
4.39614e-218
3.24613e-218
3.07373e-218
2.66394e-218
2.35083e-218
1.9172e-218
1.31222e-218
7.45171e-219
3.95661e-219
1.84567e-219
7.52943e-220
2.6372e-220
8.0207e-221
2.22168e-221
6.0481e-222
1.58312e-222
4.00853e-223
9.8168e-224
2.17089e-224
4.2788e-225
1.18832e-225
6.75942e-226
1.49892e-226
2.09692e-208
9.63735e-210
9.04432e-211
5.7754e-212
5.89593e-213
3.72408e-214
1.76104e-214
3.45566e-216
7.98524e-218
2.19547e-218
1.16811e-218
8.86808e-219
4.70029e-219
3.19689e-219
2.00701e-219
1.37141e-219
1.1624e-219
9.11379e-220
6.71788e-220
4.84113e-220
2.70425e-220
1.37592e-220
6.82266e-221
2.83082e-221
1.03397e-221
3.35301e-222
9.62867e-223
2.62735e-223
7.43152e-224
1.97582e-224
5.19181e-225
1.27922e-225
2.74319e-226
5.66099e-227
1.9673e-227
1.30555e-227
2.68135e-228
2.32926e-208
3.75477e-209
5.52158e-210
1.92668e-211
3.13067e-213
2.46498e-214
1.00828e-214
1.25148e-216
2.04483e-218
1.55337e-219
7.31949e-220
4.45991e-220
2.44224e-220
1.24837e-220
8.50294e-221
4.74861e-221
3.88688e-221
2.69501e-221
1.63299e-221
9.77594e-222
4.61792e-222
1.99082e-222
8.4137e-223
2.95141e-223
8.91641e-224
2.50597e-224
6.36905e-225
1.60497e-225
4.26548e-226
1.06644e-226
2.78341e-227
6.47876e-228
1.36712e-228
3.3938e-229
1.95168e-229
1.5843e-229
3.65933e-230
4.21005e-231
2.64328e-208
3.89617e-209
6.09062e-210
2.48428e-211
8.21383e-213
1.47794e-213
2.98368e-215
5.43128e-217
8.79689e-219
2.98612e-220
7.94673e-221
3.30097e-221
1.74114e-221
8.64196e-222
4.97227e-222
2.43657e-222
1.49188e-222
9.76265e-223
5.08823e-223
2.68779e-223
1.15447e-223
4.5956e-224
1.68726e-224
5.10568e-225
1.29651e-225
3.12838e-226
6.86355e-227
1.54212e-227
3.50083e-228
7.62002e-229
1.75809e-229
3.50516e-230
6.9981e-231
2.16484e-231
1.69189e-231
1.40522e-231
3.53693e-232
3.90105e-233
1.60387e-208
3.96272e-209
8.92149e-210
1.62902e-210
2.25489e-211
1.14647e-212
2.36963e-214
3.17916e-216
3.53022e-218
1.25051e-219
4.31893e-220
8.57764e-221
4.03081e-221
3.38235e-221
2.12113e-221
3.11642e-222
2.14994e-223
3.25988e-224
1.29906e-224
6.36461e-225
2.71455e-225
1.12167e-225
3.84068e-226
1.07142e-226
2.48553e-227
5.36016e-228
1.08107e-228
2.2662e-229
4.61763e-230
9.18202e-231
1.88307e-231
3.36346e-232
6.55345e-233
2.52782e-233
2.16526e-233
1.42871e-233
3.52425e-234
1.21081e-208
3.98782e-209
9.85519e-210
1.33257e-210
1.10003e-211
6.79699e-213
1.26221e-214
2.52306e-216
1.29653e-217
2.77689e-218
1.83324e-218
4.16611e-219
2.1768e-219
1.20632e-219
9.57921e-220
1.39865e-220
7.7603e-222
1.9618e-223
3.94848e-225
1.44849e-226
4.29843e-227
2.06517e-227
7.39074e-228
2.13769e-228
4.9508e-229
1.01774e-229
1.99254e-230
4.0345e-231
7.76312e-232
1.46054e-232
2.74745e-233
4.59815e-234
9.44694e-235
4.2547e-235
3.38128e-235
1.61137e-235
3.69063e-236
1.54338e-208
3.80223e-209
9.39209e-210
2.5142e-210
6.68853e-211
4.33215e-212
1.39298e-213
5.64673e-215
4.34872e-216
8.37015e-217
3.12897e-217
2.31298e-217
1.51551e-217
9.0723e-218
5.42677e-218
7.18341e-219
3.664e-220
9.03127e-222
1.67656e-223
2.16592e-225
2.44727e-227
4.99367e-229
9.2645e-230
2.78666e-230
8.02585e-231
1.70625e-231
3.34629e-232
6.79542e-233
1.28069e-233
2.35293e-234
4.21249e-235
7.00031e-236
1.61316e-236
7.79044e-237
5.15115e-237
1.86853e-237
3.80772e-238
1.16456e-208
4.04738e-209
1.26515e-209
5.82877e-210
2.2228e-210
5.64064e-211
6.90393e-212
4.3615e-213
3.89608e-214
8.35553e-215
2.51493e-215
1.20817e-215
8.43744e-216
4.80709e-216
1.90693e-216
2.64417e-217
1.34743e-218
3.43293e-220
6.54119e-222
9.2315e-224
1.13373e-225
1.46404e-227
2.47705e-229
2.92476e-231
1.69558e-232
2.36558e-233
4.43849e-234
9.37502e-235
1.75023e-235
3.2217e-236
5.62184e-237
9.87872e-238
2.60562e-238
1.27332e-238
6.48241e-239
1.92121e-239
3.37413e-240
1.27401e-208
4.6338e-209
1.96652e-209
1.02612e-209
5.24887e-210
8.34057e-211
1.32303e-211
2.8371e-212
7.83595e-213
2.59308e-213
8.67579e-214
3.63694e-214
2.01093e-214
1.37764e-214
4.99417e-215
7.31096e-216
4.10279e-217
1.08871e-218
2.07819e-220
3.13301e-222
4.14762e-224
6.77416e-226
1.57855e-227
1.83551e-229
7.13593e-231
1.56869e-232
3.02886e-235
8.05468e-237
1.41449e-237
2.63022e-238
4.6921e-239
9.33748e-240
2.89549e-240
1.41271e-240
5.54114e-241
1.42126e-241
2.13493e-242
1.87984e-208
1.24361e-208
8.47082e-209
5.66314e-209
3.19058e-209
1.28195e-209
3.58579e-210
8.95005e-211
2.42366e-211
7.87007e-212
2.65795e-212
9.88654e-213
4.27643e-213
1.72379e-213
4.80137e-214
7.80728e-215
5.87349e-216
2.08944e-217
4.57448e-219
7.46904e-221
1.05099e-222
2.21383e-224
6.34148e-226
1.6013e-227
4.64735e-229
7.39581e-231
6.25488e-234
3.51154e-237
6.53363e-240
8.70706e-241
1.66937e-241
3.94042e-242
1.42695e-242
6.69917e-243
2.14366e-243
4.85712e-244
6.23309e-245
7.05701e-208
3.05136e-208
8.09198e-209
3.0188e-209
3.66486e-210
1.87928e-211
1.00144e-211
5.74441e-213
1.92121e-214
1.21607e-215
6.65775e-216
4.77843e-216
3.5663e-216
3.04672e-216
2.58941e-216
2.18237e-216
1.81255e-216
1.48372e-216
1.31931e-216
1.2667e-216
1.17405e-216
9.26787e-217
5.97695e-217
3.51445e-217
1.8494e-217
8.28877e-218
3.13143e-218
1.01179e-218
2.96763e-219
8.24147e-220
2.1606e-220
5.54497e-221
1.40378e-221
3.28636e-222
7.41035e-223
1.53158e-223
2.3536e-224
2.35532e-225
1.85908e-208
1.77051e-209
4.26997e-210
4.05245e-210
6.28868e-211
4.68018e-212
5.38719e-213
2.46904e-214
6.04476e-216
1.84191e-216
1.25e-216
9.86928e-217
7.72894e-217
6.49254e-217
5.20882e-217
4.07302e-217
3.46834e-217
2.93871e-217
2.6511e-217
2.40321e-217
1.9306e-217
1.27887e-217
7.38812e-218
3.90893e-218
1.80742e-218
7.05793e-219
2.34134e-219
6.84145e-220
1.88497e-220
4.93952e-221
1.22321e-221
2.97446e-222
6.91205e-223
1.29918e-223
2.56986e-224
1.24458e-224
2.09155e-225
1.44402e-226
1.72935e-208
8.34971e-210
5.40788e-211
1.29279e-211
2.55819e-212
1.8706e-213
7.74252e-215
3.46565e-216
3.08383e-217
2.86408e-217
1.76453e-217
1.55412e-217
1.20508e-217
9.60291e-218
7.26767e-218
5.14541e-218
4.50498e-218
3.86757e-218
3.32272e-218
2.71421e-218
1.85384e-218
1.06288e-218
5.62109e-219
2.64296e-219
1.06183e-219
3.61616e-220
1.06104e-220
2.83627e-221
7.40897e-222
1.8306e-222
4.33944e-223
1.00054e-223
1.99665e-224
3.3289e-225
9.4731e-226
4.45064e-226
5.67004e-227
1.10994e-208
5.33666e-210
3.13342e-211
1.05187e-212
6.97819e-214
5.18525e-215
2.21686e-215
5.42907e-217
3.1099e-218
1.92823e-218
1.1721e-218
9.33728e-219
6.76221e-219
4.62376e-219
3.54459e-219
2.2913e-219
1.91192e-219
1.53913e-219
1.15241e-219
8.38441e-220
4.7831e-220
2.48582e-220
1.20683e-220
5.06864e-221
1.79563e-221
5.50649e-222
1.49225e-222
3.83435e-223
9.90552e-224
2.4206e-224
5.78407e-225
1.30131e-225
2.39956e-226
4.17537e-227
1.41745e-227
6.42995e-228
7.21025e-229
2.17446e-208
1.34215e-209
1.26341e-210
4.47397e-212
1.01335e-213
6.37236e-215
1.28752e-215
2.22264e-217
5.78667e-219
1.43929e-219
8.47088e-220
5.66129e-220
3.58658e-220
2.1171e-220
1.46329e-220
8.62604e-221
6.61775e-221
4.76473e-221
2.99836e-221
1.84537e-221
8.81632e-222
3.9687e-222
1.67311e-222
6.09129e-223
1.84993e-223
5.04744e-224
1.24323e-224
3.00198e-225
7.21873e-226
1.67602e-226
3.87159e-227
8.14421e-228
1.43784e-228
2.79794e-229
1.16744e-229
5.61516e-230
7.05463e-231
4.29192e-232
2.63556e-208
9.06893e-210
1.05175e-210
6.18584e-212
2.32586e-213
4.06334e-214
8.91092e-216
1.84063e-217
3.6556e-219
2.15279e-220
8.20928e-221
4.76354e-221
2.57816e-221
1.51103e-221
8.32929e-222
4.37052e-222
2.72782e-222
1.83871e-222
1.01438e-222
5.58228e-223
2.44714e-223
1.01363e-223
3.82987e-224
1.21766e-224
3.19176e-225
7.67008e-226
1.6745e-226
3.7216e-227
7.95968e-228
1.67108e-228
3.51091e-229
6.50701e-230
1.08199e-230
2.34711e-231
1.13044e-231
4.75802e-232
6.51929e-233
4.11197e-234
1.10108e-208
9.74132e-210
2.1886e-210
3.41145e-211
5.03497e-212
2.27968e-213
5.33014e-215
7.98905e-217
1.28443e-218
9.31321e-220
3.48621e-220
1.61405e-220
8.13907e-221
4.73896e-221
3.20383e-221
4.69287e-222
4.12746e-223
6.9464e-224
2.95697e-224
1.53325e-224
6.75601e-225
2.84315e-225
1.0179e-225
2.98813e-226
7.14987e-227
1.55373e-227
3.14627e-228
6.5883e-229
1.29646e-229
2.53265e-230
4.89974e-231
8.23133e-232
1.32822e-232
3.25358e-233
1.62238e-233
5.65054e-234
7.79919e-235
6.86616e-209
9.88109e-210
2.26899e-210
2.49935e-211
2.46153e-212
1.3298e-213
2.97169e-215
1.13284e-216
1.51284e-217
3.19937e-218
1.25546e-218
7.08221e-219
4.18337e-219
1.83457e-219
1.41996e-219
2.08979e-220
1.41748e-221
4.1134e-223
8.95838e-225
3.9886e-226
1.28283e-226
6.18229e-227
2.33377e-227
7.08837e-228
1.65106e-228
3.40731e-229
6.73054e-230
1.36613e-230
2.56766e-231
4.80189e-232
8.68271e-233
1.36901e-233
2.23785e-234
6.11156e-235
2.84335e-235
7.95642e-236
1.06914e-236
1.33258e-208
1.31279e-209
2.81868e-210
8.48791e-211
1.55387e-211
1.12786e-212
4.62275e-214
3.80785e-215
7.62499e-216
1.90465e-216
6.86169e-217
4.13328e-217
2.7882e-217
1.37213e-217
7.67428e-218
1.11384e-218
6.6005e-220
1.91527e-221
3.80161e-223
5.05098e-225
6.1024e-227
1.57855e-228
3.55637e-229
1.22161e-229
3.16095e-230
6.6197e-231
1.30903e-231
2.65659e-232
4.9261e-233
9.06434e-234
1.57512e-234
2.44485e-235
4.2517e-236
1.25018e-236
5.04305e-237
1.17523e-237
1.48164e-238
6.30462e-209
1.62272e-209
5.02179e-210
2.19336e-210
7.87395e-211
1.80124e-211
1.9802e-212
2.22083e-213
5.28224e-214
1.5416e-214
4.82295e-215
2.18715e-215
1.34673e-215
7.22583e-216
2.77312e-216
4.22676e-217
2.53049e-218
7.53548e-220
1.54401e-221
2.18223e-223
2.84335e-225
4.17124e-227
4.42885e-229
5.03237e-231
5.13954e-232
9.60551e-233
1.96859e-233
4.05978e-234
7.56446e-235
1.39323e-235
2.39904e-236
3.86549e-237
7.43714e-238
2.25509e-238
7.70085e-239
1.53452e-239
1.74883e-240
8.00231e-209
2.05317e-209
9.88947e-210
5.22323e-210
2.76141e-210
5.02949e-211
9.92573e-212
2.81386e-212
1.03522e-212
3.97496e-213
1.40315e-213
5.5395e-214
2.824e-214
1.85592e-214
6.96952e-215
1.15095e-215
8.03646e-217
2.5123e-218
5.20722e-220
7.62113e-222
1.15909e-223
1.97106e-225
2.66022e-227
2.88863e-229
1.03999e-230
4.66782e-233
2.7297e-235
3.69729e-236
6.88587e-237
1.26705e-237
2.24678e-238
3.91798e-239
8.72049e-240
2.67279e-240
7.83213e-241
1.37346e-241
1.40026e-242
1.53232e-208
1.02543e-208
7.91968e-209
5.23764e-209
2.56357e-209
8.74802e-210
2.35438e-210
6.44685e-211
2.16692e-211
8.4118e-212
3.23739e-212
1.25023e-212
5.41128e-213
2.21711e-213
6.55837e-214
1.20802e-214
1.16466e-215
5.15697e-217
1.21258e-218
1.98903e-220
3.15345e-222
6.48337e-224
1.49033e-225
3.12623e-227
5.84998e-229
1.77873e-231
1.2501e-234
8.46069e-238
2.46787e-239
4.46614e-240
8.4063e-241
1.63503e-241
4.2849e-242
1.29886e-242
3.32016e-243
5.21854e-244
4.75982e-245
5.5946e-208
2.33569e-208
8.61323e-209
3.87662e-209
9.12024e-210
3.24675e-211
8.68619e-213
2.79759e-214
1.58057e-215
7.28365e-216
6.29973e-216
4.71362e-216
3.69565e-216
3.18206e-216
2.83521e-216
2.42809e-216
2.02182e-216
1.64821e-216
1.44481e-216
1.37371e-216
1.25855e-216
9.76218e-217
6.35158e-217
3.76822e-217
1.976e-217
8.7522e-218
3.23573e-218
1.02723e-218
2.9902e-219
8.16196e-220
2.08645e-220
5.27942e-221
1.29053e-221
2.87932e-222
6.29459e-223
1.20778e-223
1.62686e-224
1.39715e-225
6.45002e-209
1.38833e-209
6.32431e-210
4.62825e-210
1.49823e-210
3.16002e-212
7.54001e-214
1.88573e-215
1.84817e-216
1.53859e-216
1.20936e-216
9.95145e-217
8.38784e-217
7.27921e-217
6.2303e-217
4.97723e-217
4.14531e-217
3.47669e-217
3.08402e-217
2.77294e-217
2.22154e-217
1.47441e-217
8.56918e-218
4.53991e-218
2.09258e-218
8.12388e-219
2.65325e-219
7.63746e-220
2.07084e-220
5.26001e-221
1.26087e-221
2.98721e-222
6.51014e-223
1.10967e-223
2.37439e-224
9.93815e-225
1.22109e-225
5.87057e-227
6.07219e-209
6.14808e-210
6.12772e-211
1.40889e-211
5.34892e-212
9.28498e-214
1.38045e-215
4.66036e-217
2.12909e-217
2.25434e-217
1.67447e-217
1.55382e-217
1.32825e-217
1.13976e-217
9.48764e-218
6.92195e-218
5.81138e-218
4.96309e-218
4.22527e-218
3.4428e-218
2.36613e-218
1.36796e-218
7.22867e-219
3.40497e-219
1.36659e-219
4.60414e-220
1.32084e-220
3.44657e-221
8.6943e-222
2.03861e-222
4.60924e-223
1.01028e-223
1.8076e-224
2.76235e-225
8.66399e-226
3.17802e-226
2.85032e-227
7.24932e-209
3.0946e-210
1.37671e-211
6.28926e-213
7.0663e-214
1.734e-215
2.31949e-216
8.08574e-218
1.6438e-218
1.45406e-218
1.06924e-218
9.35364e-219
7.75226e-219
6.07751e-219
4.88858e-219
3.32037e-219
2.67598e-219
2.21658e-219
1.68545e-219
1.22158e-219
7.2055e-220
3.76657e-220
1.82376e-220
7.69648e-221
2.72437e-221
8.15687e-222
2.13563e-222
5.28105e-223
1.28324e-223
2.91444e-224
6.51907e-225
1.35955e-225
2.21562e-226
3.60308e-227
1.30523e-227
4.61284e-228
3.36063e-229
1.09861e-208
6.31431e-210
4.09516e-211
1.53728e-212
4.07987e-214
1.79772e-215
1.45624e-216
3.70928e-218
2.13122e-219
1.13142e-219
8.06628e-220
6.03365e-220
3.93082e-220
2.84685e-220
1.93717e-220
1.25485e-220
9.12767e-221
6.79939e-221
4.38937e-221
2.70323e-221
1.33622e-221
6.10068e-222
2.59888e-222
9.59961e-223
2.9799e-223
8.02726e-224
1.94243e-224
4.64216e-225
1.06745e-225
2.36192e-226
5.18575e-227
1.01386e-227
1.60151e-228
2.94534e-229
1.20048e-229
3.90464e-230
2.81521e-231
8.64622e-233
1.58891e-208
3.94466e-210
2.35683e-211
1.31696e-212
7.70262e-214
5.869e-215
1.74659e-216
4.26169e-218
1.07026e-219
1.46705e-220
7.74095e-221
5.13323e-221
2.82575e-221
1.87559e-221
1.05642e-221
6.0619e-222
3.71347e-222
2.57344e-222
1.47667e-222
8.20606e-223
3.69476e-223
1.55458e-223
5.9923e-224
1.95571e-224
5.31569e-225
1.27238e-225
2.77758e-226
6.18316e-227
1.29408e-227
2.66636e-228
5.4548e-229
9.60618e-230
1.47311e-230
3.01135e-231
1.26916e-231
3.46375e-232
2.58078e-233
8.64304e-235
9.81666e-209
4.26366e-210
4.99805e-211
5.37563e-212
9.02174e-213
3.41164e-214
9.40246e-216
1.66533e-217
5.98554e-219
1.25582e-219
5.51808e-220
2.52284e-220
1.33061e-220
6.54844e-221
3.71211e-221
6.15313e-222
5.9941e-223
1.0406e-223
4.56743e-224
2.42703e-224
1.08969e-224
4.56769e-225
1.66155e-225
5.02884e-226
1.24541e-226
2.72577e-227
5.56696e-228
1.16902e-228
2.28155e-229
4.42643e-230
8.45074e-231
1.37217e-231
2.08786e-232
4.71484e-233
1.86913e-233
4.28548e-234
3.25262e-235
4.01867e-209
3.13317e-210
4.85136e-211
4.70824e-212
4.9886e-213
2.68855e-214
9.50061e-216
8.77572e-217
1.96533e-217
5.31674e-218
2.12592e-218
1.11144e-218
6.84495e-219
2.72268e-219
1.67669e-219
2.74515e-220
2.06694e-221
6.89464e-223
1.56003e-224
7.32447e-226
2.39421e-226
1.10216e-226
4.13562e-227
1.26639e-227
3.00726e-228
6.27916e-229
1.25709e-229
2.5733e-230
4.85083e-231
9.10402e-232
1.63794e-232
2.52699e-233
3.91765e-234
9.54335e-235
3.36066e-235
6.377e-236
4.95044e-237
8.97385e-209
6.01307e-210
9.43096e-211
2.45068e-211
3.70412e-212
3.08579e-213
2.15193e-214
3.71202e-215
1.04758e-215
2.95862e-216
1.09324e-216
6.19126e-217
4.43838e-217
2.01987e-217
9.63352e-218
1.50255e-218
1.00203e-219
3.30808e-221
6.84525e-223
9.42398e-225
1.0509e-226
2.69688e-228
7.23319e-229
2.49863e-229
6.14156e-230
1.27126e-230
2.55476e-231
5.25373e-232
9.87077e-233
1.84805e-233
3.20852e-234
4.93057e-235
8.11826e-236
2.06743e-236
6.33374e-237
1.02449e-237
7.88717e-239
3.67321e-209
7.00897e-210
2.12532e-210
7.70479e-211
2.941e-211
6.55501e-212
8.63812e-213
1.95902e-213
6.80829e-214
2.18106e-214
7.08672e-215
3.09754e-215
1.90969e-215
1.01455e-215
3.68965e-216
5.96277e-217
4.13363e-218
1.40916e-219
3.05831e-221
4.43088e-223
5.08129e-225
5.06617e-227
3.60521e-229
5.7195e-231
9.07127e-232
1.86276e-232
3.87734e-233
8.01982e-234
1.53472e-234
2.93504e-235
5.09677e-236
8.32638e-237
1.52034e-237
3.92768e-238
1.04065e-238
1.46756e-239
1.07876e-240
5.67491e-209
1.21104e-209
7.18048e-210
2.99924e-210
1.61217e-210
3.07231e-211
7.43469e-212
2.64409e-212
1.16842e-212
4.92436e-213
1.81962e-213
7.05648e-214
3.55853e-214
2.33215e-214
8.86237e-215
1.59642e-215
1.34988e-216
5.12443e-218
1.15925e-219
1.75653e-221
2.24898e-223
2.34503e-225
2.00342e-227
2.02675e-229
3.81298e-231
1.21371e-233
3.89994e-235
7.00638e-236
1.34283e-236
2.58602e-237
4.72439e-238
8.72023e-239
1.86605e-239
4.80828e-240
1.11626e-240
1.40581e-241
9.7078e-243
1.23979e-208
8.64177e-209
7.5462e-209
4.52063e-209
1.72274e-209
5.25155e-210
1.45676e-210
4.55331e-211
1.82645e-211
8.29204e-212
3.52035e-212
1.41225e-212
6.20308e-213
2.60566e-213
8.10738e-214
1.64573e-214
1.92226e-215
1.09882e-216
3.00758e-218
5.21897e-220
7.57521e-222
8.57028e-224
1.11992e-225
1.89019e-227
2.01563e-229
2.58851e-232
1.85178e-235
3.74453e-238
4.63513e-239
8.65347e-240
1.68961e-240
3.58202e-241
9.27614e-242
2.33005e-242
4.78366e-243
5.44907e-244
3.4916e-245
3.54202e-208
2.11063e-208
8.14292e-209
4.09557e-209
9.56075e-210
3.97785e-211
2.32914e-213
2.32916e-215
6.20941e-216
5.71601e-216
5.42222e-216
4.39536e-216
3.61693e-216
3.16319e-216
2.88867e-216
2.56693e-216
2.17698e-216
1.78899e-216