/*--------------------------------*- C++ -*----------------------------------*\
| =========                 |                                                 |
| \\      /  F ield         | OpenFOAM: The Open Source CFD Toolbox           |
|  \\    /   O peration     | Version:  2.3.1                                 |
|   \\  /    A nd           | Web:      www.OpenFOAM.org                      |
|    \\/     M anipulation  |                                                 |
\*---------------------------------------------------------------------------*/
FoamFile
{
    version     2.0;
    format      ascii;
    class       volVectorField;
    location    "10";
    object      U;
}
// * * * * * * * * * * * * * * * * * * * * * * * * * * * * * * * * * * * * * //

dimensions      [0 1 -1 0 0 0 0];

internalField   nonuniform List<vector> 
37632
(
(1.48708 -16.8522 -1.19219)
(-0.783395 -2.60024 -0.250898)
(1.50902 -1.00251 -0.652797)
(0.638484 -0.77619 0.209116)
(0.476096 -0.793983 -0.0311955)
(0.937168 -0.651966 0.0116526)
(0.986206 -0.239779 0.0814604)
(0.364258 0.00671991 0.114338)
(0.164065 -0.0548674 0.0538256)
(0.0828538 -0.0630468 0.0237853)
(0.034239 -0.0692126 0.0248972)
(0.0211134 -0.0750544 0.0191132)
(0.0071721 -0.0853987 0.0185052)
(0.0363806 -0.0805821 0.0170623)
(0.0200074 -0.0875883 0.0216594)
(0.062389 -0.0879544 0.0133296)
(0.0712434 -0.0795242 0.0130424)
(0.105983 -0.0812347 0.00982608)
(0.12766 -0.0783804 0.00792712)
(0.165572 -0.0671711 0.00344424)
(0.203953 -0.0498568 0.000298584)
(0.232962 -0.0365414 0.00540373)
(0.2228 -0.0394023 0.0132463)
(0.21202 -0.043758 0.00735453)
(0.2451 -0.0320466 -0.000519123)
(0.258756 -0.0166345 0.00360501)
(0.245363 -0.01057 0.00533504)
(0.248395 -0.00933987 0.00549463)
(0.232408 -0.0129725 0.00894219)
(0.223458 -0.015589 0.00279867)
(0.254779 -0.0101276 -0.000194252)
(0.251339 -0.0120891 0.00880207)
(0.224334 -0.0212976 0.00542009)
(0.251596 -0.0173322 -0.00394326)
(0.25968 -0.0205785 0.0030268)
(0.22136 -0.0369135 0.00440477)
(0.217568 -0.0210863 -0.00702658)
(0.232478 0.00776714 -0.00819723)
(-0.0160545 7.59162 -2.54956)
(-3.409 -2.45695 -0.771343)
(1.80138 1.33205 -0.662273)
(-1.24115 0.680936 0.208878)
(0.0427983 -0.0902699 -0.458875)
(-0.287131 0.201074 0.0123849)
(-0.306 0.188203 -0.0135991)
(-0.242521 0.0556983 -0.0203659)
(-0.0951599 0.0107016 0.00588681)
(-0.194011 0.0513784 0.000733484)
(-0.0504171 -0.0523299 -0.011679)
(-0.141168 -0.0147916 0.00126801)
(-0.0657163 -0.0544962 -0.00603373)
(-0.112695 -0.036982 0.00202078)
(-0.0952901 -0.0582818 0.0143096)
(-0.141628 -0.0249577 0.0168698)
(-0.144414 -0.0425976 0.00261249)
(-0.114629 -0.0266605 0.00416215)
(-0.135139 -0.0267654 0.00300262)
(-0.107314 -0.0284005 0.000260303)
(-0.101882 -0.0239958 0.00054373)
(-0.0774112 -0.0212876 -0.00175321)
(-0.0655647 -0.0177532 -0.00124684)
(-0.054609 -0.0186501 -0.00260002)
(-0.0403804 -0.0163049 -0.00324664)
(-0.0225969 -0.0137718 -0.00358762)
(-0.00732308 -0.01478 -0.00262398)
(0.00731527 -0.0165272 -0.00268037)
(0.0192554 -0.0187547 -0.00293263)
(0.0301744 -0.0209816 -0.00343434)
(0.0395502 -0.0200845 -0.00324566)
(0.0496632 -0.014278 -0.00516896)
(0.0615135 -0.0053489 -0.00774379)
(0.069469 0.00721256 -0.00609938)
(0.066671 0.0276021 -0.00595699)
(0.0705255 0.0507564 -0.0166811)
(0.101503 0.0650702 -0.0288661)
(0.163635 0.0646293 -0.02539)
(-0.362018 5.67102 -2.12676)
(0.811584 0.423125 -1.15224)
(-1.21781 -0.701956 0.453486)
(-0.503764 0.667863 -0.402267)
(-0.109757 -0.437376 0.0610168)
(-0.297864 -0.292041 -0.0732988)
(-0.137298 -0.107876 -0.0234839)
(-0.120874 -0.102869 -0.0347281)
(-0.097004 -0.116542 -0.0392796)
(-0.0108935 -0.0875335 -0.0352318)
(-0.0658404 -0.104162 -0.0388711)
(0.0170693 -0.0888179 -0.0513384)
(0.00435132 -0.109371 -0.0354937)
(0.0435723 -0.101826 -0.0629772)
(0.0707009 -0.136163 -0.0249711)
(0.0736946 -0.13898 0.00405291)
(-0.0652004 -0.10227 0.0144781)
(-0.0390955 -0.103698 0.00490764)
(-0.100886 -0.0879668 0.00152686)
(-0.0768222 -0.0884858 -0.00476862)
(-0.0795321 -0.0729067 -0.000502493)
(-0.0775622 -0.0609409 -0.00375261)
(-0.0715603 -0.0532861 -0.000192613)
(-0.0584263 -0.0490813 -0.00391094)
(-0.0514731 -0.0401521 -0.00286038)
(-0.0363172 -0.0287629 -0.00639435)
(-0.0257653 -0.0255342 -0.00338499)
(-0.0141094 -0.0224218 -0.00455855)
(-0.00541594 -0.0208424 -0.0048697)
(0.00250804 -0.0185882 -0.004962)
(0.00880187 -0.0153003 -0.00563729)
(0.0162947 -0.0094551 -0.00617954)
(0.0253391 -0.00241281 -0.00671197)
(0.0359466 0.00584541 -0.00687917)
(0.0493099 0.0149861 -0.00762647)
(0.0695603 0.0249966 -0.00949307)
(0.0987569 0.0300997 -0.00842274)
(-0.334909 5.15298 -1.52793)
(0.768759 1.31041 -0.75728)
(0.0447034 0.77096 -0.136761)
(-0.348494 0.24167 0.0342199)
(0.124859 0.227192 -0.0330648)
(0.0163472 0.308484 -0.0615087)
(-0.00449515 0.17951 0.0132819)
(-0.239463 0.0699398 -0.00145285)
(-0.167684 0.0803758 0.010409)
(-0.161712 0.100276 -0.0205001)
(-0.23648 0.0863427 0.0124236)
(-0.154572 0.057539 -0.024345)
(-0.211703 0.0716357 0.0129088)
(-0.176185 0.0577335 -0.0361303)
(-0.181769 0.011943 -0.00226165)
(-0.134942 0.0476951 -0.0279692)
(-0.157032 -0.00819736 -0.0123882)
(-0.0911003 -0.0149944 -0.000888489)
(-0.152474 -0.00822524 -0.00495953)
(-0.0823731 -0.0406598 -0.0172385)
(-0.112833 -0.0198424 0.00643448)
(-0.0949944 -0.0160659 -0.00440719)
(-0.0938243 -0.0313736 -0.00377874)
(-0.0745542 -0.0209458 -0.0045581)
(-0.0760446 -0.0207822 -0.00137787)
(-0.0547668 -0.00902153 -0.0056205)
(-0.0493307 -0.0166952 -0.00073913)
(-0.038119 -0.0111132 -0.00341035)
(-0.0285349 -0.00835551 -0.00348491)
(-0.0198043 -0.00815798 -0.00247345)
(-0.0135586 -0.00283619 -0.00390346)
(-0.00619455 0.00256804 -0.00285433)
(-9.24119e-05 0.00995642 -0.00300689)
(0.00549165 0.0179264 -0.00201424)
(0.00897821 0.0265648 -0.000672123)
(0.0121922 0.0336867 0.000624193)
(0.0113675 0.0403289 0.00298084)
(-0.204874 4.75183 -1.10376)
(0.759813 1.20986 -0.688367)
(0.40476 0.684761 -0.0127945)
(-0.0177063 -0.119334 0.119498)
(-0.110987 -0.349608 -0.066553)
(0.211706 0.0653325 -0.0560611)
(-0.0181194 0.0328032 0.0565751)
(-0.0841309 0.105214 -0.0484251)
(0.0647869 -0.223607 -0.0262868)
(-0.158979 0.0163576 0.00244786)
(0.0725648 -0.164387 -0.0332802)
(-0.105162 -0.0329717 0.0316013)
(-0.0168762 -0.128297 -0.00896534)
(-0.130181 -0.0356934 0.0293402)
(-0.0431329 -0.121298 -0.012625)
(-0.127969 -0.0596496 0.0265659)
(-0.0658262 -0.0727834 -0.00469279)
(-0.119542 -0.0804137 0.000665143)
(-0.069314 -0.0598317 0.00130699)
(-0.101262 -0.0588763 0.00452974)
(-0.0947922 -0.0595429 -0.00152195)
(-0.0870122 -0.0503094 0.00148672)
(-0.0837861 -0.0436902 -0.00210446)
(-0.0833697 -0.0395157 0.001721)
(-0.0824302 -0.0383144 -3.27547e-05)
(-0.0677449 -0.0248734 0.000189122)
(-0.070786 -0.0307409 -0.000122512)
(-0.0626822 -0.0219984 0.000902337)
(-0.0522645 -0.0187484 -0.00103416)
(-0.0565649 -0.0196598 0.00168614)
(-0.0421673 -0.00938539 -0.000924958)
(-0.044918 -0.00923633 0.00179493)
(-0.0358034 -0.000798421 0.000336787)
(-0.0333816 0.00441865 0.00201675)
(-0.0275877 0.0105915 0.00191799)
(-0.0237556 0.0169304 0.00283649)
(-0.0189517 0.0207068 0.0031186)
(-0.0135603 0.0214969 0.00315714)
(-0.0500934 4.87892 -0.774073)
(0.875892 2.39408 -0.478796)
(0.381214 1.12227 0.139776)
(-0.0976294 0.387715 0.0151424)
(-0.124929 0.439794 -0.110154)
(-0.0545627 0.292638 0.0336042)
(-0.241974 -0.0222985 0.0636491)
(-0.0737811 0.201553 -0.0392289)
(-0.0140908 0.221378 -0.0234894)
(-0.180532 0.0813128 0.026643)
(-0.0775668 0.124557 -0.0604306)
(-0.0670359 0.0144871 0.00270177)
(-0.130921 0.141659 -0.0353261)
(-0.088303 -0.0566536 0.00224291)
(-0.137474 0.0874803 -0.0222649)
(-0.101044 -0.0540237 -0.00276854)
(-0.12455 0.00725556 -0.00270879)
(-0.103861 -0.0235353 -0.00470634)
(-0.116362 -0.0271681 -0.00469396)
(-0.0825746 -0.0323092 -0.00164246)
(-0.114791 -0.0293254 -0.00233777)
(-0.0733165 -0.0288117 -0.00565285)
(-0.0992784 -0.0256831 0.00215594)
(-0.0817032 -0.0253204 -0.00291849)
(-0.0776035 -0.0314722 -0.00192122)
(-0.0806364 -0.0159472 0.00163853)
(-0.0770116 -0.0184237 -0.00274487)
(-0.0692696 -0.0249034 0.000827906)
(-0.0739992 -0.00706279 0.000111462)
(-0.0660807 -0.0202798 -0.000103646)
(-0.0663587 -0.0054502 0.00107031)
(-0.0606205 -0.00944361 0.000586546)
(-0.0600922 -8.91667e-05 0.00157798)
(-0.0519262 0.00088351 0.00111038)
(-0.0499752 0.00721477 0.00204986)
(-0.0416889 0.00959743 0.00161463)
(-0.035299 0.0127052 0.00184164)
(-0.0268121 0.0135211 0.00154651)
(-0.190803 4.06021 -0.609575)
(0.666263 1.79413 -0.16797)
(0.248801 0.6697 0.13706)
(0.104015 0.270082 0.00840408)
(0.0626221 0.0376788 0.0086231)
(-0.0913895 -0.0897783 0.0486412)
(-0.208202 -0.303332 -0.0816899)
(-0.219676 0.00581264 0.00888686)
(-0.262472 -0.0706486 -0.0264954)
(-0.156573 -0.076982 -0.0425881)
(-0.265453 -0.0823291 -0.0303216)
(-0.12781 -0.00801721 -0.038374)
(-0.172017 0.00743674 0.0212455)
(-0.121752 -0.0506071 -0.0207726)
(-0.166905 -0.0298484 0.0173879)
(-0.0719272 -0.0495456 -0.0191833)
(-0.135097 -0.0461014 0.0114059)
(-0.0899954 -0.0582296 -0.00456729)
(-0.102336 -0.0462147 -0.00117804)
(-0.0802522 -0.0425999 -0.00114731)
(-0.10041 -0.049053 -0.000304797)
(-0.0824751 -0.0327537 -0.00291967)
(-0.081439 -0.0350216 -0.00136916)
(-0.0781302 -0.0398193 -0.000918341)
(-0.0724927 -0.0259281 -0.00152623)
(-0.0814443 -0.0242088 -0.00194247)
(-0.0643762 -0.0250967 -0.00196604)
(-0.0758502 -0.0222745 -0.000927395)
(-0.0680784 -0.0165714 -0.00149982)
(-0.0686884 -0.0208294 -0.00164474)
(-0.0670557 -0.0137697 -0.000337769)
(-0.0667597 -0.0130877 -0.00139356)
(-0.0603396 -0.0107972 -0.000422414)
(-0.0614672 -0.00624305 -0.000372345)
(-0.0535477 -0.00432188 -0.000452001)
(-0.0513335 -0.00101496 8.49227e-06)
(-0.0446749 0.000652505 -0.00015483)
(-0.169895 4.64402 -0.582952)
(0.631967 2.54593 -0.0685148)
(0.391635 1.34047 0.104954)
(0.174208 0.607502 0.00899135)
(-0.00111921 0.369567 -0.0126961)
(-0.00656976 0.229558 -0.0406437)
(0.0238863 0.390304 -0.110201)
(0.0116404 0.256197 0.0301218)
(0.0987364 0.292054 -0.0397797)
(0.129422 0.268728 -0.0436314)
(0.166733 0.282891 0.0011609)
(-0.0592583 0.113678 0.0391307)
(-0.0676002 0.0560668 0.0133756)
(-0.111344 0.0438393 0.00174319)
(-0.124642 -0.0184814 0.00109057)
(-0.111234 -0.0056571 -0.00310936)
(-0.108482 -0.0139405 0.00148494)
(-0.119754 -0.0354631 -0.0037276)
(-0.0920999 -0.0286312 -0.00545549)
(-0.091231 -0.0278655 0.00413995)
(-0.102959 -0.0222852 -0.00493809)
(-0.0717345 -0.0320105 -0.000669411)
(-0.0954792 -0.0205674 -0.00167442)
(-0.057424 -0.0267155 0.000572938)
(-0.0858365 -0.0190214 -0.000199648)
(-0.0653725 -0.0112871 -0.00245181)
(-0.0735497 -0.0124497 -0.00113729)
(-0.0642027 -0.0134659 1.66223e-05)
(-0.0733861 -0.00396519 -0.00258264)
(-0.0603214 -0.0109099 -0.000137579)
(-0.070878 -0.00213896 -0.00170052)
(-0.0580144 -0.00647896 -0.000841984)
(-0.0643187 -0.000304068 -0.000981953)
(-0.0549988 -0.000981277 -0.000987936)
(-0.0559807 0.00188583 -0.000571014)
(-0.0497996 0.00305831 -0.000745575)
(-0.0472735 0.0038961 -0.000414692)
(-0.23439 3.49996 -0.307534)
(0.207305 1.08632 0.0900343)
(0.108843 0.531207 0.0945084)
(0.0813003 0.397816 -0.011329)
(-0.132114 0.155518 0.0106042)
(-0.269726 -0.137852 -0.0124333)
(-0.300657 -0.0925557 0.0375537)
(-0.224042 -0.188856 -0.0200663)
(-0.223598 0.00224203 0.0081413)
(-0.181151 -0.0510181 0.00011761)
(-0.172369 -0.0125094 0.00349705)
(-0.193926 -0.0275137 -0.0261651)
(-0.156231 -0.00217516 -0.00927277)
(-0.139522 -0.0196824 0.00462389)
(-0.144577 -0.0386384 -0.00106696)
(-0.107081 -0.0559968 0.00236003)
(-0.111531 -0.0417981 0.00288431)
(-0.0832571 -0.0523845 -0.00116861)
(-0.108085 -0.0449248 0.000740938)
(-0.0835027 -0.0437211 -0.00362344)
(-0.0901082 -0.0414304 0.00124766)
(-0.0838695 -0.0292017 -0.0038948)
(-0.0807505 -0.0366519 -0.0024617)
(-0.0628982 -0.0469696 0.00327404)
(-0.0781902 -0.014581 -0.00337384)
(-0.0710699 -0.0208115 0.000771585)
(-0.0643677 -0.0175431 -0.00147998)
(-0.0685879 -0.0170664 8.52725e-05)
(-0.0692058 -0.00564314 -0.00154773)
(-0.0629747 -0.0165036 -0.000566004)
(-0.0665386 -0.00497134 -0.000856268)
(-0.0613978 -0.0100703 -0.00109675)
(-0.0592527 -0.00553213 -0.000775336)
(-0.0565796 -0.00529623 -0.000858326)
(-0.0527828 -0.00336577 -0.000753612)
(-0.0495576 -0.00239325 -0.000652711)
(-0.0459325 -0.0013519 -0.000623594)
(-0.00489527 4.20474 -0.242755)
(0.363168 2.09306 -0.164373)
(0.590235 1.49742 -0.172333)
(0.471974 1.09187 -0.0790473)
(0.184422 0.636653 -0.0281508)
(0.209215 0.42787 -0.0816407)
(0.263752 0.341475 -0.0554267)
(0.340567 0.365793 -0.0939738)
(0.284696 0.305028 -0.0569047)
(0.250015 0.263025 -0.0586677)
(0.251424 0.303567 -0.042835)
(0.155041 0.26806 0.0137916)
(-0.0497643 0.087084 0.0310512)
(-0.0633452 0.0261374 0.000291223)
(-0.0584958 -0.0265108 0.00196687)
(-0.071824 -0.0277187 -0.0031667)
(-0.0439303 -0.0487433 0.00306834)
(-0.0792941 -0.0274168 0.00428121)
(-0.0706013 -0.0296841 0.000317509)
(-0.0775646 -0.0248976 -0.00120294)
(-0.0758257 -0.0205368 -0.00339768)
(-0.0793148 -0.0198417 -0.00610767)
(-0.0640947 -0.0243974 -0.00408948)
(-0.0668066 -0.0434217 -0.0024594)
(-0.0676811 0.00413601 0.00130877)
(-0.0686038 -0.0219529 -0.00139919)
(-0.0559495 -0.0082598 -0.000962393)
(-0.0682 -0.00611714 -0.000568123)
(-0.0655512 -0.000336539 -0.000670715)
(-0.0611175 -0.00747203 -0.002082)
(-0.0658602 0.00282048 -0.000368716)
(-0.0587697 -0.00484255 -0.00173037)
(-0.059052 0.00147243 -0.00103326)
(-0.0545631 -7.1523e-05 -0.00110477)
(-0.0524079 0.00117356 -0.000996907)
(-0.0486399 0.00222152 -0.000910043)
(-0.0459038 0.00217061 -0.00079882)
(0.0686194 3.02532 -0.111229)
(0.357501 1.14517 -0.0396643)
(0.150029 0.850336 -0.000301664)
(0.139488 0.737947 0.0258396)
(0.161625 0.466803 -0.000396436)
(0.0204879 -0.0277524 0.019591)
(-0.13422 -0.0968408 0.0329165)
(-0.0606313 0.0569636 0.0142007)
(0.011058 0.179739 0.0115164)
(-0.0145067 0.132074 0.0186555)
(0.0181405 0.155019 0.0297142)
(-0.112658 0.0782948 0.0412712)
(-0.120869 0.0368839 0.0011402)
(-0.101014 -0.0217609 0.00198374)
(-0.0909732 -0.0540363 -0.00741488)
(-0.0408823 -0.0612583 -0.0129297)
(0.00211711 -0.0496491 -0.0106176)
(-0.0111683 -0.0504938 -0.00337582)
(-0.0174286 -0.0501268 0.00139769)
(-0.0597041 -0.0358434 -0.000828269)
(-0.0565854 -0.0274486 -0.00128834)
(-0.080148 -0.00993294 -0.00195465)
(-0.0536367 -0.0229029 -0.0124894)
(-0.0566227 -0.037878 0.00119506)
(-0.0872895 -0.0127407 0.00519406)
(-0.0388465 -0.0211061 -0.00604807)
(-0.0650515 -0.0159806 0.00180478)
(-0.0598054 -0.000459851 0.00203265)
(-0.0686446 -0.00669604 -0.00170719)
(-0.0558109 -0.00344449 0.000129548)
(-0.0716324 -0.00148208 -5.9548e-05)
(-0.0521088 -0.0042654 -0.00155722)
(-0.0641 -0.00154199 2.27238e-05)
(-0.0503702 -0.00213737 -0.00126037)
(-0.054027 -0.00160917 -0.000306254)
(-0.0472429 -0.000938898 -0.000759706)
(-0.0459382 -0.000955055 -0.000477911)
(-0.0478937 3.93941 0.290009)
(0.981738 2.04186 0.2405)
(0.807438 1.44089 0.192167)
(0.919967 0.992861 0.166323)
(0.943482 0.638377 0.117865)
(0.876057 0.43971 0.0923419)
(0.605814 0.342472 0.0701165)
(0.468985 0.227813 0.0641317)
(0.370923 0.148244 0.058522)
(0.323483 0.120697 0.0429668)
(0.269636 0.195745 0.0359868)
(0.39052 0.215456 0.0303894)
(0.410808 0.101074 0.0275422)
(0.333183 -0.00288449 0.018655)
(0.208456 -0.0507135 0.0138916)
(0.0713455 -0.0454162 0.00128034)
(0.0375834 -0.0038234 0.00772403)
(-0.0202197 0.020055 -0.0102221)
(0.0616573 0.0115773 -0.0159232)
(0.0092508 0.0146024 -0.00609283)
(0.0790051 0.00967057 0.00741044)
(-0.0378489 -0.0234414 0.011926)
(-0.0494814 0.00697124 -0.0113577)
(-0.0332319 -0.0195661 -0.0129305)
(-0.0749911 -0.0215179 -0.00717283)
(-0.0211353 -0.0148732 -0.0122769)
(-0.0581094 -0.00160647 0.00679909)
(-0.0570509 -0.00455924 -0.000793678)
(-0.0612562 0.00131612 -0.000213589)
(-0.0613822 -0.00188113 0.000278415)
(-0.0656457 0.00178357 -0.000928322)
(-0.0543482 -0.00148538 -0.00133593)
(-0.0617657 0.0022351 1.08262e-05)
(-0.0498239 -0.000286371 -0.00175668)
(-0.0529784 0.00170518 -8.18001e-05)
(-0.0465136 0.001014 -0.000992249)
(-0.0453077 0.00139625 -0.000484218)
(0.125811 -4.94382 0.990818)
(0.435933 -2.26554 1.83671)
(-0.74937 -0.592674 0.0303622)
(0.414486 -0.531151 0.0256918)
(0.219787 -0.113132 0.22676)
(0.427764 -0.0295361 0.0326204)
(0.273131 -0.00657412 0.163508)
(0.100516 0.0244974 0.176259)
(0.106282 -0.0443748 0.0916667)
(0.0725403 -0.0457997 0.0421121)
(0.0349358 -0.0465401 0.0550839)
(0.0333547 -0.0536387 0.0400271)
(0.0201045 -0.0603651 0.0403888)
(0.04497 -0.0581416 0.0359707)
(0.0397939 -0.0641735 0.0383305)
(0.0704364 -0.0690119 0.0246428)
(0.0897733 -0.0643939 0.0249595)
(0.11489 -0.0684651 0.0196198)
(0.141796 -0.0669393 0.0166353)
(0.173661 -0.0558257 0.0098587)
(0.200382 -0.0402914 0.00506262)
(0.217099 -0.0306292 0.0131257)
(0.21571 -0.0326959 0.024371)
(0.220895 -0.0321848 0.0146547)
(0.238539 -0.0213265 0.00344894)
(0.238556 -0.00995347 0.0096685)
(0.230872 -0.0053643 0.0118994)
(0.22915 -0.00671147 0.0135734)
(0.218516 -0.0100458 0.0172738)
(0.223195 -0.00906409 0.00519675)
(0.237729 -0.00809466 0.004038)
(0.22817 -0.0144215 0.0184725)
(0.22877 -0.013374 0.00731948)
(0.241277 -0.00900179 -0.0057269)
(0.22477 -0.0273011 0.00930975)
(0.21701 -0.0294045 0.00666967)
(0.213922 0.0204342 -0.0249294)
(0.189313 0.0488351 -0.0328758)
(0.0721653 -2.16592 -2.24706)
(-1.16395 2.44202 -0.898904)
(-1.37523 -1.48866 -0.279476)
(-0.558655 1.11971 -0.118373)
(-0.340753 0.115046 -0.173584)
(-0.316216 0.184083 0.01418)
(-0.259804 0.12505 -0.0378143)
(-0.18365 0.0998899 -0.0274199)
(-0.115746 0.0468904 0.0117142)
(-0.161663 0.0583608 0.000887452)
(-0.107067 0.00604375 -0.00212556)
(-0.156508 0.00746805 0.0141815)
(-0.118301 -0.0142582 0.00042964)
(-0.150629 -0.00742453 0.0204973)
(-0.122184 -0.0253453 0.020087)
(-0.124682 -0.0302508 0.0231995)
(-0.0992243 -0.0415144 0.00275307)
(-0.0911603 -0.0380867 0.00331715)
(-0.0792812 -0.0371011 0.00276383)
(-0.0663224 -0.033598 0.000351166)
(-0.0539149 -0.0284959 0.000644786)
(-0.0362059 -0.0251257 -0.00107737)
(-0.0241945 -0.0219672 -0.00116151)
(-0.0147651 -0.0196626 -0.00344301)
(-0.00490425 -0.0158096 -0.00425589)
(0.00649202 -0.0129242 -0.00394409)
(0.0185447 -0.0134635 -0.00290884)
(0.0288295 -0.0156376 -0.00234649)
(0.0382917 -0.0173843 -0.00323148)
(0.047407 -0.0190998 -0.00429168)
(0.0533073 -0.0179205 -0.00327616)
(0.0579328 -0.0118869 -0.00678981)
(0.0662561 -0.00303147 -0.0123484)
(0.0705793 0.00789909 -0.00897355)
(0.0643914 0.0244749 -0.0107929)
(0.0690486 0.042405 -0.0316561)
(0.0876428 0.0531037 -0.0398238)
(0.104601 0.0460827 -0.0129676)
(-0.451238 -1.90925 1.10338)
(-1.29284 -1.0055 -0.593129)
(-0.197025 -0.0767442 0.162669)
(-0.77515 -0.205745 0.00213531)
(-0.0886969 -0.224685 -0.353242)
(-0.36286 -0.0161578 0.0161198)
(-0.0603793 -0.0589624 -0.0628819)
(-0.224736 -0.0411726 -0.0108841)
(-0.0926829 -0.0494339 -0.0453361)
(-0.155941 -0.0261237 -0.0073138)
(-0.117467 -0.065365 -0.0422392)
(-0.141536 -0.0439742 -0.0146667)
(-0.115796 -0.0780867 -0.0368071)
(-0.131138 -0.0602383 -0.017105)
(-0.0978368 -0.0901317 -0.0166494)
(-0.0973876 -0.0854837 0.0196615)
(-0.100228 -0.0783442 0.0117366)
(-0.106878 -0.0799891 0.00333924)
(-0.0967653 -0.0774641 0.00253408)
(-0.107106 -0.06985 -0.00351873)
(-0.0969517 -0.0635513 -0.00359591)
(-0.0932424 -0.056314 -0.00515751)
(-0.0824134 -0.0488666 -0.00379669)
(-0.0752345 -0.0442837 -0.00608973)
(-0.0646789 -0.0378379 -0.00708718)
(-0.0553412 -0.0304955 -0.00933024)
(-0.0437501 -0.0270222 -0.00707872)
(-0.0350364 -0.0264562 -0.00789611)
(-0.0270003 -0.0246098 -0.00848007)
(-0.019935 -0.0230505 -0.00829363)
(-0.0150685 -0.0207842 -0.00909194)
(-0.00902766 -0.0162567 -0.00983137)
(-0.00170496 -0.00998504 -0.0104149)
(0.00692735 -0.00490602 -0.00973782)
(0.0178568 -0.00104028 -0.00939114)
(0.0313177 0.00700859 -0.00738611)
(0.0398365 0.0133272 0.00497189)
(-0.0651427 -0.157657 0.428387)
(-0.901711 0.0705061 0.176033)
(-0.482648 -0.0847325 -0.0601529)
(-0.277632 -0.015811 0.241484)
(-0.107116 0.12293 -0.125216)
(-0.291339 0.0470629 -0.0645341)
(-0.130361 0.0807106 0.0535922)
(-0.161886 0.0538174 -0.0358519)
(-0.145188 0.0361456 0.0113776)
(-0.0970261 0.0247612 -0.0129381)
(-0.142021 0.0445061 0.0107247)
(-0.0834061 -0.0318544 -0.0199287)
(-0.120848 0.00322282 -0.00148064)
(-0.0894984 -0.0504181 -0.0116839)
(-0.130205 -0.00776022 -0.0351807)
(-0.112349 -0.0354406 -0.0179556)
(-0.126766 -0.0162755 -0.0197341)
(-0.126521 -0.0294748 -0.0112258)
(-0.100922 -0.0412085 -0.00802846)
(-0.12963 -0.0347537 -0.0140538)
(-0.105334 -0.0391145 -0.00498277)
(-0.107587 -0.0349532 -0.00697376)
(-0.0997264 -0.0304634 -0.00906029)
(-0.0968621 -0.0314962 -0.00647818)
(-0.087715 -0.0267001 -0.00694338)
(-0.0819095 -0.024637 -0.0075531)
(-0.0714367 -0.0218839 -0.00397241)
(-0.0655671 -0.0216003 -0.00577935)
(-0.0594175 -0.0191074 -0.00589024)
(-0.0519539 -0.0177093 -0.00379179)
(-0.0495747 -0.0135846 -0.00532549)
(-0.0430596 -0.00884734 -0.00334052)
(-0.0393219 -0.00238128 -0.00299007)
(-0.0351966 0.00396937 -0.000745054)
(-0.0329354 0.0106948 0.00158977)
(-0.0296299 0.0166645 0.00368504)
(-0.0263815 0.0224148 0.00727934)
(0.251898 -0.139788 0.433065)
(-0.225026 -0.408973 -0.0158408)
(-0.158643 -0.243977 0.0978662)
(-0.232816 -0.2288 0.00799303)
(-0.112794 -0.0419202 -0.172287)
(-0.134542 0.0561491 0.00943932)
(-0.1857 -0.0810752 0.139368)
(-0.0823047 -0.0220918 -0.0526162)
(-0.13117 -0.0469681 -0.0028429)
(-0.145415 -0.0108721 0.00717701)
(-0.110976 -0.0389067 -0.00339576)
(-0.159751 -0.0321301 0.0334205)
(-0.0992307 -0.0515097 -0.0157159)
(-0.147827 -0.0478818 0.0436499)
(-0.100534 -0.0622049 -0.0224664)
(-0.112012 -0.0635939 0.0285322)
(-0.0987179 -0.0615752 -0.00637607)
(-0.0943916 -0.0613858 0.000140204)
(-0.0998295 -0.0559959 -0.00174205)
(-0.0918413 -0.0561989 0.00131735)
(-0.094937 -0.0495527 -0.00307586)
(-0.0892446 -0.0445141 -0.00118317)
(-0.0909954 -0.0423153 -0.00377804)
(-0.084627 -0.037478 -0.00169335)
(-0.0846382 -0.0347497 -0.00220826)
(-0.0781261 -0.0308591 -0.00241091)
(-0.0787595 -0.0283749 -0.00240915)
(-0.0716028 -0.0275358 -0.00173182)
(-0.0710343 -0.0248749 -0.00270495)
(-0.0677155 -0.0240033 -0.000276085)
(-0.0641919 -0.0198406 -0.00252702)
(-0.0613018 -0.017107 0.000922729)
(-0.0575176 -0.0118608 -0.000498942)
(-0.0522764 -0.00677905 0.00213801)
(-0.047177 -0.00169523 0.0022321)
(-0.0408818 0.00465321 0.00386203)
(-0.0341379 0.00848827 0.0048187)
(-0.026488 0.00986337 0.00530619)
(0.0521896 0.571158 0.166136)
(-0.179498 0.394216 0.00496039)
(-0.156626 0.369107 0.158144)
(-0.2263 0.21631 -0.0361897)
(-0.243129 0.186755 -0.0588599)
(-0.229354 0.0803382 0.0877221)
(-0.149316 0.0185957 0.0813634)
(-0.1393 0.00505913 -0.0144915)
(-0.12986 0.0525974 -0.0185177)
(-0.124704 0.055011 0.0386816)
(-0.114318 0.016179 -0.0415667)
(-0.114607 0.0409969 0.00218248)
(-0.12092 0.00625566 -0.0266582)
(-0.119377 0.00607343 -0.00533693)
(-0.123935 -0.0202213 -0.0170703)
(-0.127627 -0.00473502 -0.0130912)
(-0.117057 -0.0321884 -0.0066519)
(-0.113674 -0.0279517 -0.00948899)
(-0.109355 -0.0335091 -0.00937684)
(-0.100376 -0.0328274 -0.00572839)
(-0.102102 -0.0342226 -0.00593568)
(-0.0918037 -0.0291644 -0.00860862)
(-0.0931185 -0.0278334 -0.00217441)
(-0.0847702 -0.0265072 -0.00553822)
(-0.0830108 -0.0240075 -0.00425229)
(-0.0800329 -0.01884 -0.00242872)
(-0.0772485 -0.0182628 -0.00479739)
(-0.0750992 -0.0177684 -0.00211074)
(-0.073979 -0.0131725 -0.00271669)
(-0.0717977 -0.0142168 -0.00238997)
(-0.07047 -0.0103182 -0.00119581)
(-0.0677047 -0.00795527 -0.00126333)
(-0.0655713 -0.00424324 -3.25562e-05)
(-0.060736 -0.000857732 4.14743e-05)
(-0.0575696 0.00308255 0.00141264)
(-0.0510316 0.00579686 0.0013692)
(-0.0449332 0.00821162 0.00211351)
(-0.0375481 0.00884589 0.00188528)
(-0.0793199 0.518264 0.0476268)
(-0.193706 0.201761 -0.00604823)
(-0.00634016 0.169356 0.0436711)
(-0.00515848 0.0336236 0.0275369)
(-0.134559 -0.0541884 0.107395)
(-0.0513409 0.0204945 0.100737)
(-0.0542772 0.00848708 -0.0482146)
(-0.105155 -0.0585192 -0.0104585)
(-0.129281 -0.0333821 -0.024766)
(-0.1196 0.0166835 -0.0518162)
(-0.161892 -0.0559415 -0.0504618)
(-0.163635 -0.0222819 -0.0384424)
(-0.158566 -0.043701 0.0195275)
(-0.153241 -0.0275332 -0.0224586)
(-0.142009 -0.0512827 0.0137717)
(-0.118107 -0.0388909 -0.0163323)
(-0.120614 -0.0473532 0.00711624)
(-0.101015 -0.0467506 -0.00672807)
(-0.104804 -0.0458629 -0.00371929)
(-0.0929725 -0.0432344 -0.00271746)
(-0.0974983 -0.041962 -0.0035707)
(-0.0868569 -0.0359866 -0.00535481)
(-0.0881454 -0.0323759 -0.00351353)
(-0.0814559 -0.0335445 -0.00307011)
(-0.0789288 -0.0269566 -0.00377491)
(-0.0783528 -0.0220923 -0.00426498)
(-0.0741984 -0.0226838 -0.00405292)
(-0.0740397 -0.0198144 -0.00311942)
(-0.0719027 -0.0165168 -0.0039317)
(-0.0706132 -0.0171625 -0.00347767)
(-0.0691565 -0.0132438 -0.00275854)
(-0.0670828 -0.0119138 -0.00319253)
(-0.0640632 -0.00913521 -0.0022524)
(-0.0612826 -0.00618245 -0.00199495)
(-0.0568887 -0.00352764 -0.00168014)
(-0.0527916 -0.000966184 -0.00113114)
(-0.0478615 0.000659608 -0.0010013)
(-0.0025669 1.23546 0.00263964)
(-0.110789 0.837495 0.0341489)
(0.111889 0.609442 0.0557054)
(-0.0227654 0.347971 0.0168092)
(-0.168446 0.140526 -0.000434634)
(-0.0467546 0.0271889 0.0330294)
(-0.0521203 0.0170836 -0.026688)
(-0.01564 0.152193 0.0111504)
(-0.00849295 0.122428 -0.054057)
(-0.0320785 0.116179 -0.0178606)
(-0.0275593 0.131594 0.0382204)
(-0.144289 0.0470871 0.0539594)
(-0.0652617 0.0679146 0.00633725)
(-0.132643 0.0118758 0.006617)
(-0.111017 -0.000588522 -0.00497904)
(-0.11847 -0.0240394 -0.00355686)
(-0.114243 -0.0203106 -0.000996614)
(-0.104392 -0.0339869 -0.00708587)
(-0.104399 -0.0327743 -0.00688289)
(-0.0922313 -0.0309136 0.000768066)
(-0.0953044 -0.0317134 -0.00691437)
(-0.084031 -0.0288709 -0.00462435)
(-0.0884684 -0.0246299 -0.00348993)
(-0.075237 -0.0273684 -0.000868794)
(-0.0785496 -0.019258 -0.00287177)
(-0.0736454 -0.015196 -0.00438733)
(-0.0736421 -0.0148981 -0.00315981)
(-0.0702972 -0.0118512 -0.00264733)
(-0.0715155 -0.00876742 -0.00441672)
(-0.067794 -0.00930051 -0.0028714)
(-0.0682129 -0.00585743 -0.0036307)
(-0.0642797 -0.00557591 -0.00320159)
(-0.0628513 -0.00296884 -0.0029607)
(-0.0588926 -0.00118742 -0.00283088)
(-0.056172 0.000532064 -0.00225892)
(-0.0519369 0.00218633 -0.00223195)
(-0.0483167 0.00302655 -0.00178428)
(-0.0109974 0.82329 0.176795)
(-0.178746 0.318053 0.0275481)
(0.0880449 0.284668 -0.0329601)
(-0.0077347 0.288773 -0.0277622)
(-0.0897256 0.00982173 0.0444595)
(-0.171606 -0.188213 0.0113377)
(-0.222034 -0.118451 -0.0183921)
(-0.144873 -0.0069162 -0.0549848)
(-0.166378 -0.0293927 -0.0126135)
(-0.141205 0.00307307 -0.0122212)
(-0.126386 0.0326296 -0.00890676)
(-0.159293 0.0168397 -0.0360608)
(-0.16955 -0.00320243 -0.0166947)
(-0.147861 -0.010603 0.00176951)
(-0.14592 -0.0361815 -0.00344212)
(-0.111514 -0.0411253 -0.00277193)
(-0.104842 -0.0442381 0.00603947)
(-0.0878158 -0.0435946 -0.00374261)
(-0.0921455 -0.0448443 -0.000141659)
(-0.0835485 -0.03925 -0.00481398)
(-0.0866416 -0.04047 -0.000505303)
(-0.0811655 -0.0297585 -0.00721252)
(-0.0842033 -0.0319937 -0.00386346)
(-0.0725851 -0.0347705 0.00366273)
(-0.0762832 -0.0210074 -0.00442853)
(-0.0720595 -0.0177062 -0.00158292)
(-0.0701988 -0.0175629 -0.00172696)
(-0.0699778 -0.0123812 -0.00179702)
(-0.0700152 -0.0100344 -0.00283324)
(-0.0674216 -0.0105875 -0.00244111)
(-0.0670567 -0.00755068 -0.0025817)
(-0.0638985 -0.00744312 -0.00305556)
(-0.0612742 -0.00567222 -0.0026445)
(-0.0578876 -0.00419933 -0.00257651)
(-0.0546874 -0.00284385 -0.00229307)
(-0.0509073 -0.00158109 -0.00208958)
(-0.0474296 -0.000706452 -0.00188495)
(0.224043 1.96208 0.0483011)
(0.285361 1.21614 -0.244248)
(0.385808 0.95167 -0.18492)
(0.288354 0.739105 -0.0511262)
(0.191762 0.445968 -0.046164)
(0.149506 0.227915 -0.031989)
(0.0389993 0.158291 -0.0302336)
(0.00651712 0.158212 -0.0545138)
(-0.00395197 0.165793 -0.0316059)
(-0.0254143 0.142085 -0.0315539)
(-0.0419069 0.162143 -0.000990388)
(-0.0642558 0.138452 0.0449124)
(-0.0871727 0.0795861 0.028216)
(-0.0919863 0.0225782 0.00406914)
(-0.0755137 -0.015669 0.0012676)
(-0.0794944 -0.0302823 -0.00714449)
(-0.0550513 -0.0356523 0.000281221)
(-0.0631184 -0.0312397 0.00586134)
(-0.054353 -0.0313243 0.000810436)
(-0.0590219 -0.0276498 -0.00160482)
(-0.0595434 -0.0264968 -0.00448947)
(-0.0698026 -0.0232157 -0.00993147)
(-0.0738413 -0.0245563 -0.00906614)
(-0.0706663 -0.0320734 -0.000115224)
(-0.0754305 -0.0182283 -0.00235805)
(-0.0631022 -0.0125424 -0.00415235)
(-0.0688737 -0.0137177 -0.000706819)
(-0.0669693 -0.00541827 -0.00303794)
(-0.0686472 -0.00532325 -0.0023087)
(-0.0657063 -0.00518732 -0.00398059)
(-0.0664458 -0.00233035 -0.00257037)
(-0.0621311 -0.00330863 -0.00399494)
(-0.0604833 -0.00148466 -0.00310728)
(-0.0564074 -0.000436758 -0.00315788)
(-0.0539543 8.94052e-05 -0.00271654)
(-0.0501524 0.00130566 -0.0025791)
(-0.0472506 0.00149635 -0.00224305)
(0.26736 0.309532 0.190719)
(0.135855 0.0962837 0.204996)
(-0.0427667 0.152507 0.231431)
(0.0415127 0.29183 0.118158)
(0.112665 0.153835 0.110511)
(-0.181551 -0.257849 0.128569)
(-0.241505 -0.195942 0.0252382)
(-0.209709 -0.0760417 0.0176472)
(-0.167979 -0.0059315 0.0641136)
(-0.138059 0.00989852 0.0573311)
(-0.106962 0.041141 0.0631092)
(-0.114753 0.0410039 0.053899)
(-0.0976251 0.0312252 0.0081032)
(-0.0932308 -0.0176172 0.0041725)
(-0.0706431 -0.050429 -0.0025322)
(-0.0549002 -0.0511232 -0.01692)
(-0.0247244 -0.0410909 -0.0224699)
(-0.00757399 -0.0357009 -0.0110925)
(-0.00197405 -0.0414331 0.000605348)
(-0.0166642 -0.0308323 -0.000653836)
(-0.0228531 -0.032766 -0.00245056)
(-0.0410568 -0.0107112 0.00342025)
(-0.0371188 -0.0185507 -0.0155293)
(-0.0537404 -0.0387383 0.00311405)
(-0.0719186 -0.0293625 0.000847989)
(-0.0477036 -0.0162205 -0.00803381)
(-0.0737969 -0.0146534 0.00482308)
(-0.058991 -0.00305078 -0.00112502)
(-0.0707118 -0.005335 -0.000686824)
(-0.0629481 -0.0043563 -0.00163593)
(-0.0685296 -0.00252034 -0.00101521)
(-0.0600544 -0.00358526 -0.00357284)
(-0.061845 -0.00265814 -0.00152873)
(-0.0547391 -0.00178073 -0.00299615)
(-0.0543136 -0.00177364 -0.00165518)