/*--------------------------------*- C++ -*----------------------------------*\
| =========                 |                                                 |
| \\      /  F ield         | OpenFOAM: The Open Source CFD Toolbox           |
|  \\    /   O peration     | Version:  2.3.1                                 |
|   \\  /    A nd           | Web:      www.OpenFOAM.org                      |
|    \\/     M anipulation  |                                                 |
\*---------------------------------------------------------------------------*/
FoamFile
{
    version     2.0;
    format      ascii;
    class       volVectorField;
    location    "10";
    object      U_0;
}
// * * * * * * * * * * * * * * * * * * * * * * * * * * * * * * * * * * * * * //

dimensions      [0 1 -1 0 0 0 0];

internalField   nonuniform List<vector> 
37632
(
(1.43631 -16.8626 -1.17084)
(-0.792145 -2.51052 -0.242457)
(1.48992 -1.00492 -0.660261)
(0.623686 -0.784961 0.205061)
(0.482874 -0.803072 -0.0327004)
(0.951764 -0.647363 0.0130318)
(0.979332 -0.228344 0.0843426)
(0.352965 0.00811626 0.114078)
(0.161867 -0.0566251 0.052694)
(0.0818965 -0.0636581 0.0235336)
(0.0339518 -0.0694951 0.0248652)
(0.0211129 -0.0752635 0.0191356)
(0.00726266 -0.0855702 0.0185287)
(0.0365975 -0.0807485 0.0170893)
(0.020254 -0.0877554 0.0216903)
(0.0627669 -0.08811 0.0133393)
(0.0716589 -0.0796871 0.0130658)
(0.106369 -0.0814031 0.00984842)
(0.128152 -0.0785191 0.00791586)
(0.166181 -0.0672123 0.00340916)
(0.20462 -0.049819 0.00030501)
(0.233399 -0.0365548 0.00548316)
(0.222973 -0.0395071 0.013278)
(0.21241 -0.0437924 0.007284)
(0.245669 -0.0319467 -0.00054106)
(0.259043 -0.0165366 0.00364686)
(0.245528 -0.0105411 0.00535511)
(0.248518 -0.00936335 0.00552214)
(0.232421 -0.0130199 0.00893643)
(0.223706 -0.0155809 0.00274985)
(0.255069 -0.0100966 -0.000158106)
(0.251278 -0.0121393 0.00884342)
(0.224431 -0.0213206 0.00535557)
(0.251905 -0.0173105 -0.00394705)
(0.259632 -0.0206708 0.00308092)
(0.221273 -0.0369414 0.00436249)
(0.217722 -0.0209277 -0.00707947)
(0.232618 0.00784557 -0.00815462)
(-0.00814878 7.62271 -2.55496)
(-3.40089 -2.5543 -0.772799)
(1.81857 1.35298 -0.66125)
(-1.24539 0.683353 0.209575)
(0.0438625 -0.0926936 -0.463686)
(-0.281722 0.199009 0.0116076)
(-0.303614 0.18981 -0.0110985)
(-0.241553 0.0554746 -0.0200833)
(-0.0943775 0.00953248 0.00583923)
(-0.19417 0.0510357 0.000760527)
(-0.0503509 -0.0525887 -0.0117164)
(-0.14133 -0.0149933 0.00127624)
(-0.0658104 -0.0546689 -0.00603044)
(-0.112782 -0.0370992 0.00203409)
(-0.0954299 -0.0584607 0.0143556)
(-0.141738 -0.024995 0.0168739)
(-0.144511 -0.0426138 0.00259792)
(-0.114678 -0.026697 0.00414725)
(-0.135146 -0.0267633 0.00300235)
(-0.107341 -0.0283593 0.000256049)
(-0.101857 -0.0239573 0.000536877)
(-0.0773714 -0.0212513 -0.00176197)
(-0.0655232 -0.0177218 -0.00126591)
(-0.0545718 -0.0186105 -0.00260999)
(-0.0403084 -0.0162556 -0.0032488)
(-0.0225103 -0.0137365 -0.00358417)
(-0.00723998 -0.0147649 -0.00262292)
(0.00738325 -0.0165255 -0.00268266)
(0.0193183 -0.018762 -0.00293932)
(0.030231 -0.0209864 -0.00343493)
(0.0396072 -0.0200659 -0.00324872)
(0.0497348 -0.0142357 -0.00518809)
(0.0615923 -0.00528994 -0.00775009)
(0.0694892 0.00731332 -0.00608589)
(0.0666588 0.0277434 -0.00598665)
(0.0706178 0.0508736 -0.0167648)
(0.101788 0.0651182 -0.0289076)
(0.163957 0.0646089 -0.0253303)
(-0.360274 5.65739 -2.11987)
(0.810382 0.450444 -1.16817)
(-1.22756 -0.703478 0.457217)
(-0.50003 0.665419 -0.401198)
(-0.110487 -0.432521 0.0591631)
(-0.297395 -0.291214 -0.0732937)
(-0.137518 -0.106967 -0.0235668)
(-0.120321 -0.102522 -0.0348152)
(-0.0971237 -0.116987 -0.0393208)
(-0.0106164 -0.0877538 -0.0353328)
(-0.0656234 -0.104482 -0.0389436)
(0.0173366 -0.0890423 -0.0514385)
(0.00467774 -0.109584 -0.0355326)
(0.0439322 -0.102101 -0.0630863)
(0.0710526 -0.136471 -0.0249288)
(0.0735975 -0.139177 0.0041479)
(-0.0652643 -0.102417 0.0144398)
(-0.0391454 -0.103841 0.00490526)
(-0.100902 -0.0880481 0.00154012)
(-0.0769488 -0.0884958 -0.00475876)
(-0.0795429 -0.0729254 -0.000518873)
(-0.0775586 -0.0609487 -0.00376121)
(-0.0715576 -0.0532675 -0.000197024)
(-0.0584167 -0.0490434 -0.00391362)
(-0.0514363 -0.0400989 -0.00286306)
(-0.0362692 -0.0287208 -0.00639571)
(-0.0257088 -0.0255132 -0.00338815)
(-0.0140588 -0.0224151 -0.0045571)
(-0.00537428 -0.0208408 -0.00487111)
(0.00253835 -0.018581 -0.00496479)
(0.00883203 -0.0152804 -0.00564096)
(0.0163372 -0.00942141 -0.0061861)
(0.0253932 -0.00236905 -0.00671661)
(0.0360117 0.00589907 -0.00688492)
(0.0494045 0.0150568 -0.00763775)
(0.0697085 0.0250519 -0.00949999)
(0.0988817 0.0301227 -0.00839104)
(-0.333343 5.15225 -1.52917)
(0.765825 1.31874 -0.769121)
(0.0482905 0.778296 -0.137358)
(-0.344496 0.237984 0.0360994)
(0.12393 0.228133 -0.031868)
(0.019366 0.308951 -0.0618558)
(-0.00286234 0.180178 0.0135415)
(-0.237861 0.0700259 -0.00133081)
(-0.168141 0.0804723 0.0105108)
(-0.161318 0.100055 -0.0205862)
(-0.236817 0.0864774 0.0124513)
(-0.154749 0.0574236 -0.0244529)
(-0.211778 0.0715714 0.0129344)
(-0.176385 0.0578885 -0.0362157)
(-0.181874 0.0119238 -0.0023235)
(-0.134918 0.0476413 -0.027942)
(-0.157172 -0.00816532 -0.012441)
(-0.0910057 -0.015096 -0.000902737)
(-0.152588 -0.0082061 -0.00490793)
(-0.0824309 -0.0406749 -0.017286)
(-0.1128 -0.0198833 0.00641374)
(-0.0950217 -0.0160035 -0.00438705)
(-0.0938466 -0.0313309 -0.00377755)
(-0.0745475 -0.0209265 -0.00456901)
(-0.0760249 -0.0207582 -0.00137465)
(-0.0547456 -0.00898931 -0.00562258)
(-0.0492897 -0.0166649 -0.000742011)
(-0.0380908 -0.0111037 -0.00340761)
(-0.0285131 -0.00834088 -0.00348705)
(-0.0197845 -0.00813934 -0.00247482)
(-0.0135443 -0.0028085 -0.0039036)
(-0.00617825 0.00260888 -0.00285507)
(-7.91097e-05 0.0100044 -0.00300293)
(0.00549472 0.0179814 -0.00200671)
(0.00897891 0.0266194 -0.000662845)
(0.0121854 0.0337322 0.000635951)
(0.0113262 0.0403653 0.00299758)
(-0.198807 4.7647 -1.09673)
(0.773145 1.25 -0.689721)
(0.406066 0.683679 -0.00475716)
(-0.0177656 -0.121849 0.118665)
(-0.111328 -0.348924 -0.0662549)
(0.21277 0.0662365 -0.0561412)
(-0.0188483 0.0328147 0.0566453)
(-0.0838568 0.106251 -0.0484785)
(0.0651341 -0.223665 -0.026267)
(-0.158965 0.0162205 0.00246632)
(0.0726023 -0.164578 -0.0332662)
(-0.105207 -0.0330566 0.0316532)
(-0.0167578 -0.128457 -0.00898047)
(-0.130236 -0.0357689 0.0293848)
(-0.0430831 -0.121464 -0.0126039)
(-0.127921 -0.0597912 0.026552)
(-0.0658418 -0.0728139 -0.00464299)
(-0.119529 -0.080487 0.000644238)
(-0.0693812 -0.059876 0.00129845)
(-0.101219 -0.0588692 0.00452093)
(-0.0948246 -0.0595268 -0.001509)
(-0.0870582 -0.0502994 0.00149056)
(-0.0837809 -0.0436758 -0.00211174)
(-0.0833591 -0.0394781 0.00171696)
(-0.0824456 -0.0382897 -2.70263e-05)
(-0.0677334 -0.0248461 0.000186574)
(-0.0707629 -0.0307205 -0.000121877)
(-0.0626872 -0.0219894 0.000905154)
(-0.0522505 -0.0187328 -0.00103556)
(-0.0565638 -0.0196459 0.00168787)
(-0.0421706 -0.00936619 -0.000923046)
(-0.0449149 -0.00920789 0.00179671)
(-0.0358044 -0.000769995 0.00034109)
(-0.033379 0.00445274 0.00202007)
(-0.0275851 0.0106278 0.0019228)
(-0.0237507 0.016956 0.00283994)
(-0.0189397 0.0207147 0.00311978)
(-0.013536 0.0214823 0.0031539)
(-0.0512381 4.86864 -0.772878)
(0.881742 2.4069 -0.460548)
(0.369877 1.09919 0.148119)
(-0.0980929 0.384942 0.0116743)
(-0.124662 0.440278 -0.109829)
(-0.0547222 0.294192 0.0335578)
(-0.241374 -0.0211976 0.0639613)
(-0.0744814 0.201014 -0.0388652)
(-0.0137208 0.22155 -0.0238651)
(-0.18045 0.0814415 0.026656)
(-0.0778612 0.124543 -0.0605296)
(-0.066972 0.014012 0.00266884)
(-0.13104 0.141753 -0.0352794)
(-0.0883145 -0.056791 0.00222715)
(-0.137521 0.087337 -0.022233)
(-0.101126 -0.053986 -0.00278339)
(-0.124486 0.00709758 -0.00271399)
(-0.103889 -0.023523 -0.00469877)
(-0.116365 -0.0271739 -0.00469903)
(-0.0825746 -0.0323203 -0.00164064)
(-0.114801 -0.0293256 -0.00232849)
(-0.0733337 -0.0288091 -0.00565906)
(-0.0992567 -0.0256661 0.00215377)
(-0.0817391 -0.0252723 -0.00290758)
(-0.0775965 -0.0314693 -0.00192889)
(-0.0806188 -0.0159398 0.00164337)
(-0.0770275 -0.0183853 -0.00274184)
(-0.0692594 -0.0249015 0.000825996)
(-0.0739993 -0.00704635 0.000114344)
(-0.0660871 -0.0202585 -0.000101807)
(-0.0663627 -0.00543432 0.00107099)
(-0.0606209 -0.00941741 0.000588159)
(-0.0600969 -6.59405e-05 0.00158)
(-0.0519254 0.00090879 0.0011121)
(-0.0499688 0.00723349 0.00205093)
(-0.041677 0.0096115 0.00161458)
(-0.0352811 0.0127089 0.00184047)
(-0.0267945 0.013513 0.00154449)
(-0.199715 4.09254 -0.622134)
(0.658993 1.79321 -0.149907)
(0.244793 0.662887 0.13779)
(0.106123 0.271524 0.00679161)
(0.0634147 0.0380643 0.00864337)
(-0.0905382 -0.0882857 0.0491101)
(-0.208117 -0.303853 -0.0814494)
(-0.218866 0.00522095 0.00873487)
(-0.262648 -0.0701586 -0.0263881)
(-0.156194 -0.0767056 -0.0426488)
(-0.26521 -0.082232 -0.0301453)
(-0.128058 -0.00817779 -0.0383679)
(-0.171919 0.00726761 0.0212515)
(-0.121563 -0.0506906 -0.0207568)
(-0.166885 -0.0300377 0.0174002)
(-0.0718313 -0.049634 -0.019167)
(-0.134979 -0.0461248 0.0113725)
(-0.0899981 -0.0582502 -0.00453898)
(-0.102346 -0.0462499 -0.00118473)
(-0.0802152 -0.0425803 -0.0011551)
(-0.100403 -0.04906 -0.000296789)
(-0.0825043 -0.0327481 -0.00292223)
(-0.0814373 -0.0349806 -0.00136947)
(-0.0781558 -0.0398051 -0.000920289)
(-0.0724681 -0.0259313 -0.00152543)
(-0.0814605 -0.0241863 -0.00193871)
(-0.0643773 -0.0250796 -0.00196807)
(-0.0758438 -0.0222748 -0.000926365)
(-0.0680878 -0.0165548 -0.00149698)
(-0.0686906 -0.0208185 -0.0016455)
(-0.0670541 -0.01376 -0.000336322)
(-0.0667644 -0.0130684 -0.00139196)
(-0.0603344 -0.0107812 -0.000422463)
(-0.0614604 -0.00622523 -0.000371023)
(-0.0535383 -0.00430384 -0.000452002)
(-0.0513195 -0.0010031 8.58972e-06)
(-0.0446624 0.000658206 -0.000154938)
(-0.166655 4.66238 -0.578412)
(0.62226 2.51227 -0.0591609)
(0.384838 1.31936 0.103229)
(0.170722 0.602759 0.00674872)
(-0.00399018 0.368889 -0.0135711)
(-0.00721785 0.229149 -0.0412204)
(0.023057 0.390696 -0.110362)
(0.0122158 0.25638 0.0297967)
(0.0989091 0.292405 -0.0395449)
(0.129868 0.269048 -0.0435233)
(0.166591 0.282784 0.00134031)
(-0.0597222 0.113279 0.0390654)
(-0.0676792 0.0557677 0.0132914)
(-0.111297 0.0437316 0.00174884)
(-0.124661 -0.018581 0.00107516)
(-0.111232 -0.00579394 -0.00313107)
(-0.108416 -0.0139306 0.00148869)
(-0.119746 -0.0354578 -0.00371196)
(-0.0921037 -0.028649 -0.00547678)
(-0.0911651 -0.0278672 0.00414552)
(-0.102989 -0.0222608 -0.00492749)
(-0.0717266 -0.0319941 -0.000673163)
(-0.0954964 -0.0205504 -0.00167452)
(-0.0574347 -0.0266833 0.000567737)
(-0.0858161 -0.0190312 -0.000193201)
(-0.065391 -0.0112737 -0.00245123)
(-0.0735478 -0.0124264 -0.00114115)
(-0.0642021 -0.0134638 1.98524e-05)
(-0.0733926 -0.00395274 -0.00258239)
(-0.0603231 -0.0108983 -0.000138086)
(-0.0708803 -0.00212893 -0.00169913)
(-0.0580175 -0.00646479 -0.000842307)
(-0.0643147 -0.000294068 -0.000981111)
(-0.0549965 -0.000967606 -0.000987835)
(-0.0559707 0.00189487 -0.00057085)
(-0.0497893 0.00306571 -0.000745438)
(-0.0472591 0.00389976 -0.000414958)
(-0.222892 3.50236 -0.299087)
(0.194768 1.05781 0.0852415)
(0.110209 0.532015 0.0859886)
(0.0855043 0.406526 -0.0137286)
(-0.129099 0.158615 0.00996973)
(-0.26701 -0.13657 -0.0128779)
(-0.30002 -0.0933028 0.0378174)
(-0.223516 -0.189354 -0.0199848)
(-0.223108 0.00174022 0.0081263)
(-0.181085 -0.0509802 8.29609e-05)
(-0.172375 -0.0125533 0.00335699)
(-0.193758 -0.027244 -0.0260566)
(-0.15647 -0.00238305 -0.00923954)
(-0.139318 -0.0198517 0.00461291)
(-0.144434 -0.0387184 -0.0010472)
(-0.10693 -0.0560672 0.00235581)
(-0.111472 -0.0417956 0.00289373)
(-0.0831858 -0.0523833 -0.00117286)
(-0.108047 -0.0449209 0.000742787)
(-0.0835151 -0.0437032 -0.00361968)
(-0.090102 -0.0414303 0.00124904)
(-0.0838671 -0.0291925 -0.00388234)
(-0.080801 -0.0365935 -0.00247281)
(-0.0628794 -0.0469735 0.00328073)
(-0.078174 -0.0146037 -0.00336912)
(-0.0710866 -0.0207762 0.000768851)
(-0.0643744 -0.0175275 -0.00147988)
(-0.0685792 -0.0170728 8.60351e-05)
(-0.0692164 -0.00562735 -0.00154697)
(-0.0629756 -0.0164948 -0.000565967)
(-0.0665377 -0.00496693 -0.000855318)
(-0.0614005 -0.0100569 -0.00109638)
(-0.059249 -0.00552491 -0.000775195)
(-0.056575 -0.00528609 -0.000857898)
(-0.0527753 -0.00335765 -0.000753522)
(-0.049548 -0.00238619 -0.000652507)
(-0.0459222 -0.0013479 -0.000623496)
(0.0058833 4.23111 -0.244315)
(0.368666 2.10305 -0.171129)
(0.590129 1.50137 -0.174929)
(0.466565 1.09164 -0.0779498)
(0.184101 0.63485 -0.0280527)
(0.211652 0.426588 -0.0812162)
(0.266944 0.341738 -0.0552969)
(0.341984 0.36636 -0.0936676)
(0.285321 0.305608 -0.056894)
(0.250232 0.264062 -0.0585919)
(0.25154 0.304707 -0.0425657)
(0.153749 0.267705 0.014079)
(-0.0502664 0.0864005 0.0309057)
(-0.0633832 0.0256415 0.000228683)
(-0.0583392 -0.0267111 0.00195326)
(-0.0717299 -0.0277196 -0.00315777)
(-0.0439136 -0.0487244 0.00307203)
(-0.0792396 -0.0274123 0.00428626)
(-0.0706311 -0.0296446 0.0003222)
(-0.0775409 -0.0248877 -0.00120232)
(-0.0758345 -0.0205351 -0.00338745)
(-0.0793356 -0.01983 -0.00610703)
(-0.0641249 -0.0243478 -0.00408827)
(-0.0667955 -0.04347 -0.00246501)
(-0.0676608 0.00412607 0.00131096)
(-0.0686379 -0.0219089 -0.00139188)
(-0.0559488 -0.00826166 -0.000966585)
(-0.0681937 -0.00611821 -0.000568862)
(-0.0655645 -0.000320935 -0.00066818)
(-0.0611166 -0.00747218 -0.00208252)
(-0.0658606 0.00282652 -0.000368696)
(-0.0587733 -0.00483383 -0.00172918)
(-0.0590483 0.00147437 -0.00103373)
(-0.0545604 -6.41301e-05 -0.00110435)
(-0.0524013 0.00117686 -0.000996855)
(-0.0486323 0.00222456 -0.000909901)
(-0.0458947 0.00217244 -0.000798764)
(0.061268 3.05658 -0.109661)
(0.362605 1.14398 -0.0406488)
(0.14226 0.856023 0.000736915)
(0.142336 0.740291 0.0253013)
(0.170059 0.467115 -0.00083648)
(0.0238911 -0.0291412 0.02014)
(-0.132162 -0.0955591 0.0332318)
(-0.0606271 0.0575347 0.0145208)
(0.0108688 0.179965 0.0116237)
(-0.0148864 0.132155 0.0188333)
(0.0171743 0.154889 0.0298881)
(-0.113389 0.0778945 0.0412267)
(-0.12107 0.0365484 0.00106086)
(-0.100874 -0.0220185 0.00193197)
(-0.0906825 -0.0540746 -0.00747711)
(-0.0405879 -0.0611989 -0.0129514)
(0.00233685 -0.0496235 -0.0106048)
(-0.0110927 -0.0504759 -0.00335772)
(-0.017418 -0.0501104 0.00140839)
(-0.0597047 -0.0358492 -0.000827311)
(-0.0566095 -0.0274538 -0.00128414)
(-0.0801696 -0.0099207 -0.00194695)
(-0.0536865 -0.0228704 -0.0124899)
(-0.0565866 -0.0379123 0.0011708)
(-0.0872982 -0.0127454 0.00521375)
(-0.0388979 -0.0210695 -0.00603559)
(-0.0650344 -0.0159885 0.0017886)
(-0.0598093 -0.000457642 0.0020377)
(-0.068657 -0.00668328 -0.00170548)
(-0.0558054 -0.00344646 0.000126691)
(-0.0716365 -0.00147577 -5.702e-05)
(-0.0521115 -0.00426091 -0.0015577)
(-0.0640939 -0.00153987 2.26908e-05)
(-0.0503718 -0.00213264 -0.00125975)
(-0.0540176 -0.00160651 -0.000306788)
(-0.047238 -0.000936322 -0.000759302)
(-0.0459292 -0.000953048 -0.000478057)
(-0.054009 3.95856 0.2952)
(0.983226 2.04964 0.239662)
(0.809366 1.44806 0.192869)
(0.927146 0.987571 0.166073)
(0.946747 0.631595 0.117907)
(0.874927 0.438474 0.0929403)
(0.603836 0.343882 0.0706763)
(0.468089 0.228921 0.0642603)
(0.370292 0.148708 0.0584551)
(0.32321 0.121744 0.0428879)
(0.270441 0.196937 0.0359448)
(0.392522 0.215219 0.0304023)
(0.410894 0.0996308 0.0275991)
(0.332036 -0.00366305 0.0185624)
(0.207492 -0.0506951 0.0137835)
(0.071055 -0.0451708 0.00122195)
(0.0376256 -0.0036894 0.00772047)
(-0.0201834 0.020094 -0.01022)
(0.0617384 0.0115972 -0.0159177)
(0.00929179 0.0146217 -0.00608645)
(0.0790142 0.0096868 0.00742645)
(-0.0378887 -0.0234601 0.0119278)
(-0.049523 0.00696655 -0.0113778)
(-0.0332351 -0.0195631 -0.012934)
(-0.0750364 -0.0215007 -0.00714198)
(-0.0211403 -0.0148734 -0.012279)
(-0.0581006 -0.00160302 0.00678962)
(-0.0570657 -0.00455651 -0.00078598)
(-0.0612611 0.00131675 -0.000216826)
(-0.0613785 -0.00188016 0.000279047)
(-0.0656544 0.00178497 -0.000926306)
(-0.0543457 -0.00148492 -0.00133769)
(-0.0617631 0.00223497 1.18756e-05)
(-0.0498242 -0.000284499 -0.00175638)
(-0.0529699 0.00170436 -8.25498e-05)
(-0.0465091 0.00101474 -0.000991507)
(-0.0452991 0.00139588 -0.000484511)
(0.124995 -4.96213 0.988526)
(0.447184 -2.23659 1.82625)
(-0.750637 -0.59987 0.027873)
(0.406795 -0.529063 0.0227749)
(0.222778 -0.109275 0.223142)
(0.424646 -0.0262732 0.035368)
(0.266009 -0.00523452 0.165583)
(0.0980361 0.0230659 0.17465)
(0.105605 -0.0454646 0.0901263)
(0.072046 -0.0462686 0.041686)
(0.0347481 -0.0467689 0.0550007)
(0.033419 -0.0538047 0.0400562)
(0.0202817 -0.0604995 0.0404308)
(0.0452335 -0.0582748 0.0360256)
(0.0401277 -0.0643046 0.0383831)
(0.0708426 -0.0691394 0.0246704)
(0.0902133 -0.0645337 0.0250034)
(0.115335 -0.0686091 0.0196632)
(0.142317 -0.0670439 0.0166281)
(0.174235 -0.0558381 0.00981049)
(0.200934 -0.0402521 0.00507677)
(0.217509 -0.0306427 0.0132505)
(0.216022 -0.0327576 0.0244193)
(0.221315 -0.0321719 0.0145489)
(0.238941 -0.0212323 0.00342407)
(0.238779 -0.00987392 0.00973856)
(0.23104 -0.00534402 0.0119427)
(0.229267 -0.00673752 0.013623)
(0.218624 -0.0100656 0.0172482)
(0.223429 -0.00904873 0.00512733)
(0.237882 -0.00810475 0.00411703)
(0.228208 -0.0144527 0.0185164)
(0.228956 -0.0133361 0.00719986)
(0.24137 -0.00903819 -0.00570144)
(0.224741 -0.0274339 0.00939838)
(0.217105 -0.0292439 0.00654002)
(0.213889 0.0207156 -0.0250817)
(0.189225 0.0488506 -0.0327905)
(0.0630738 -2.17117 -2.24981)
(-1.15912 2.4482 -0.878012)
(-1.3594 -1.48939 -0.275662)
(-0.564081 1.10985 -0.117388)
(-0.334709 0.114918 -0.179133)
(-0.316463 0.187091 0.016676)
(-0.259843 0.126457 -0.0345663)
(-0.182829 0.0995168 -0.0269503)
(-0.115349 0.0462117 0.011673)
(-0.16181 0.0581084 0.000910201)
(-0.107105 0.00586933 -0.00217799)
(-0.156669 0.00736289 0.0142234)
(-0.118376 -0.0143622 0.00042939)
(-0.15071 -0.00749327 0.0205245)
(-0.122249 -0.0254446 0.020129)
(-0.124665 -0.0303264 0.0232005)
(-0.0991922 -0.0415552 0.00274262)
(-0.0911242 -0.0381373 0.00329507)
(-0.0792383 -0.0371138 0.00275051)
(-0.0662514 -0.0335731 0.000337697)
(-0.053823 -0.0284509 0.000637355)
(-0.0361082 -0.0250869 -0.00108715)
(-0.0241116 -0.021934 -0.00118847)
(-0.0146943 -0.0196115 -0.00346661)
(-0.00482565 -0.0157496 -0.00425631)
(0.00658058 -0.0128871 -0.00393484)
(0.0186306 -0.0134512 -0.00290273)
(0.0289003 -0.0156368 -0.00234702)
(0.0383595 -0.0173889 -0.00324338)
(0.0474642 -0.0191016 -0.00429029)
(0.0533464 -0.0178998 -0.00327529)
(0.0579834 -0.0118412 -0.00682573)
(0.0663179 -0.00297636 -0.0123582)
(0.0705717 0.0079823 -0.00894533)
(0.0643652 0.0245883 -0.0108633)
(0.069122 0.0424944 -0.0317727)
(0.0877619 0.0531357 -0.039779)
(0.104649 0.0460156 -0.0127667)
(-0.430925 -1.92416 1.10567)
(-1.28078 -1.0362 -0.601703)
(-0.199961 -0.0770204 0.156768)
(-0.774743 -0.204044 0.00512318)
(-0.0884591 -0.227562 -0.352795)
(-0.363577 -0.0149165 0.0149607)
(-0.0598924 -0.0579677 -0.0626343)
(-0.224526 -0.0411344 -0.0109752)
(-0.092752 -0.0498205 -0.0454715)
(-0.155909 -0.0262578 -0.00733041)
(-0.117523 -0.0655901 -0.0423183)
(-0.141544 -0.0440947 -0.0146543)
(-0.115761 -0.0782642 -0.0368516)
(-0.131169 -0.0603809 -0.0171269)
(-0.0977735 -0.0902874 -0.0165601)
(-0.0974373 -0.0856462 0.0197237)
(-0.100183 -0.0784784 0.0117183)
(-0.106949 -0.0801009 0.00334223)
(-0.0967981 -0.0775291 0.00253474)
(-0.107109 -0.06987 -0.00351381)
(-0.0969704 -0.0635426 -0.00360755)
(-0.0932386 -0.0563129 -0.00517004)
(-0.082405 -0.0488544 -0.00380491)
(-0.0752144 -0.0442405 -0.00609797)
(-0.0646465 -0.0377872 -0.00709186)
(-0.0552993 -0.030459 -0.0093342)
(-0.0437074 -0.0270075 -0.00708077)
(-0.034998 -0.0264528 -0.00789438)
(-0.0269709 -0.024608 -0.0084818)
(-0.019915 -0.0230458 -0.00829534)
(-0.0150509 -0.0207717 -0.00909576)
(-0.00900147 -0.0162278 -0.00983887)
(-0.00167268 -0.00995216 -0.0104151)
(0.00696714 -0.00488456 -0.00973445)
(0.0179182 -0.0010067 -0.00938878)
(0.031378 0.00705566 -0.00734979)
(0.0398321 0.0133423 0.00507469)
(-0.0586051 -0.14952 0.427682)
(-0.900209 0.0743155 0.172335)
(-0.491978 -0.0806756 -0.0614031)
(-0.276835 -0.0180343 0.240387)
(-0.104981 0.122562 -0.123767)
(-0.290449 0.0477998 -0.0652001)
(-0.130306 0.0804763 0.0545816)
(-0.160887 0.0537714 -0.0356169)
(-0.145155 0.0360219 0.0114945)
(-0.0967526 0.0244712 -0.0129378)
(-0.141952 0.044429 0.0107979)
(-0.0833277 -0.0321042 -0.0199734)
(-0.120837 0.00306167 -0.00156648)
(-0.0894454 -0.0506127 -0.0116837)
(-0.13026 -0.00780358 -0.0352823)
(-0.11239 -0.0354807 -0.0179671)
(-0.126745 -0.0163759 -0.0197494)
(-0.12666 -0.0294718 -0.0112559)
(-0.100916 -0.0412505 -0.00801239)
(-0.129662 -0.0347468 -0.0140765)
(-0.105388 -0.0391032 -0.00500036)
(-0.107606 -0.0349406 -0.00696864)
(-0.0997328 -0.03043 -0.00906572)
(-0.0968667 -0.0314602 -0.00648541)
(-0.087702 -0.0266697 -0.00694015)
(-0.0818883 -0.0246068 -0.00755599)
(-0.0714138 -0.0218649 -0.00397252)
(-0.0655466 -0.0215872 -0.0057743)
(-0.0594045 -0.0190957 -0.00589161)
(-0.0519462 -0.0176947 -0.00378999)
(-0.0495705 -0.0135611 -0.00532258)
(-0.0430557 -0.00881453 -0.00333733)
(-0.0393187 -0.00234472 -0.00297866)
(-0.035203 0.00400922 -0.000730304)
(-0.0329394 0.0107346 0.00160832)
(-0.0296254 0.0166995 0.00370364)
(-0.0263765 0.0224462 0.00729512)
(0.245521 -0.134204 0.430936)
(-0.228525 -0.407919 -0.012799)
(-0.158879 -0.247075 0.103483)
(-0.229743 -0.228901 0.00756422)
(-0.113508 -0.0431635 -0.172673)
(-0.133723 0.0573444 0.00906229)
(-0.186128 -0.0808531 0.139407)
(-0.0820971 -0.0220569 -0.0523808)
(-0.131017 -0.046973 -0.0028173)
(-0.145479 -0.0109601 0.00721393)
(-0.110874 -0.0390674 -0.00333252)
(-0.159836 -0.0321921 0.0335432)
(-0.0991873 -0.0516665 -0.0157796)
(-0.147824 -0.0479813 0.0437559)
(-0.100501 -0.0623737 -0.0224473)
(-0.111915 -0.0636898 0.028494)
(-0.0987304 -0.0616549 -0.00632462)
(-0.0943648 -0.0614472 0.000120006)
(-0.0998464 -0.0560267 -0.00174506)
(-0.0918747 -0.056204 0.00130929)
(-0.0949508 -0.0495548 -0.00307202)
(-0.0892623 -0.0445008 -0.00117775)
(-0.091006 -0.0422935 -0.00378384)
(-0.0846372 -0.0374536 -0.00169621)
(-0.0846407 -0.0347232 -0.0022045)
(-0.0781196 -0.030841 -0.00241051)
(-0.0787538 -0.0283603 -0.00240717)
(-0.0716008 -0.0275272 -0.00172802)
(-0.0710295 -0.0248667 -0.00270538)
(-0.0677199 -0.0239942 -0.000271729)
(-0.0641944 -0.0198245 -0.00252423)
(-0.0613017 -0.0170856 0.000926908)
(-0.0575144 -0.0118372 -0.000491578)
(-0.0522693 -0.00675073 0.00214432)
(-0.0471631 -0.00166189 0.00223986)
(-0.0408634 0.00468028 0.00386894)
(-0.0341118 0.00850147 0.00482319)
(-0.0264585 0.00985807 0.00530359)
(0.0420373 0.57998 0.162175)
(-0.18206 0.400792 0.0124835)
(-0.154059 0.365136 0.15698)
(-0.223854 0.216191 -0.0381025)
(-0.243138 0.188563 -0.0586049)
(-0.22971 0.0806119 0.0875841)
(-0.148668 0.0190302 0.0815508)
(-0.139128 0.00487431 -0.0140359)
(-0.129695 0.0523604 -0.0187922)
(-0.124551 0.0549691 0.0386694)
(-0.114261 0.0160161 -0.0416123)
(-0.114629 0.0408521 0.00217357)
(-0.120913 0.00615676 -0.0266376)
(-0.11941 0.00594943 -0.00538288)
(-0.12393 -0.020331 -0.0170535)
(-0.127647 -0.00481314 -0.013114)
(-0.117041 -0.0322162 -0.00666894)
(-0.11367 -0.0279979 -0.00947762)
(-0.109363 -0.0335146 -0.00938431)
(-0.100376 -0.0328295 -0.00573021)
(-0.10211 -0.0342164 -0.00592521)
(-0.0918106 -0.0291519 -0.00861299)
(-0.0931221 -0.0278129 -0.00217667)
(-0.0847786 -0.0264806 -0.00553131)
(-0.0830079 -0.0239915 -0.00425501)
(-0.0800296 -0.0188236 -0.00242375)
(-0.0772491 -0.018241 -0.00479506)
(-0.0750974 -0.0177576 -0.00211035)
(-0.0739823 -0.0131594 -0.0027127)
(-0.0718022 -0.0142008 -0.00238748)
(-0.0704746 -0.0103019 -0.00119352)
(-0.0677072 -0.00793422 -0.00126)
(-0.0655728 -0.0042206 -2.86816e-05)
(-0.0607327 -0.000835124 4.52902e-05)
(-0.0575603 0.00310212 0.00141684)
(-0.0510157 0.0058126 0.00137133)
(-0.044913 0.00821941 0.00211321)
(-0.0375295 0.00884272 0.00188234)
(-0.0816439 0.533336 0.048497)
(-0.198887 0.209127 -0.0025865)
(-0.000958589 0.171771 0.0417546)
(-0.0038402 0.0353701 0.02692)
(-0.134924 -0.0533728 0.107542)
(-0.0502574 0.0216034 0.101251)
(-0.0539866 0.00844553 -0.0480659)
(-0.104574 -0.0581927 -0.0105728)
(-0.129178 -0.0336586 -0.0247136)
(-0.119552 0.0165908 -0.051884)
(-0.162017 -0.0560813 -0.0502627)
(-0.163636 -0.0223607 -0.038483)
(-0.158507 -0.0438166 0.019519)
(-0.153181 -0.0276589 -0.0224192)
(-0.141923 -0.0513671 0.0137729)
(-0.117999 -0.0389686 -0.016321)
(-0.120547 -0.0473942 0.00709107)
(-0.100995 -0.046776 -0.0067055)
(-0.10479 -0.0458736 -0.00372843)
(-0.0929664 -0.0432293 -0.00272152)
(-0.097501 -0.0419575 -0.00356167)
(-0.0868658 -0.0359759 -0.00535694)
(-0.0881484 -0.0323522 -0.00351463)
(-0.0814675 -0.0335237 -0.00307086)
(-0.0789251 -0.026951 -0.0037726)
(-0.0783554 -0.0220758 -0.00426125)
(-0.0741994 -0.0226683 -0.00405381)
(-0.0740401 -0.0198088 -0.00311689)
(-0.0719059 -0.0165046 -0.00392889)
(-0.0706162 -0.0171515 -0.00347694)
(-0.0691585 -0.0132325 -0.002756)
(-0.0670837 -0.0118981 -0.00319025)
(-0.0640599 -0.00911937 -0.00225085)
(-0.0612758 -0.00616549 -0.0019926)
(-0.0568771 -0.00351051 -0.00167904)
(-0.0527768 -0.000953458 -0.00113)
(-0.0478461 0.000666491 -0.00100102)
(0.0105493 1.25401 0.0136795)
(-0.110392 0.839156 0.0348448)
(0.115175 0.605884 0.0514268)
(-0.0236427 0.348194 0.0143289)
(-0.169685 0.140395 -0.0014073)
(-0.047089 0.0270282 0.0328549)
(-0.0519222 0.0173059 -0.0268357)
(-0.0157221 0.151789 0.011021)
(-0.00819292 0.122749 -0.0538382)
(-0.0319371 0.116404 -0.0177364)
(-0.0275518 0.131694 0.0383412)
(-0.144376 0.046857 0.0538035)
(-0.0653881 0.0677076 0.00625638)
(-0.1326 0.0117471 0.00660257)
(-0.111035 -0.00072356 -0.00499764)
(-0.118428 -0.0241193 -0.00358963)
(-0.114235 -0.0203451 -0.000988873)
(-0.104363 -0.0339824 -0.0070702)
(-0.104385 -0.0327764 -0.00690258)
(-0.0922204 -0.0309064 0.000774904)
(-0.0953101 -0.0316954 -0.00690274)
(-0.0840289 -0.0288629 -0.00462608)
(-0.088476 -0.024605 -0.00349228)
(-0.0752479 -0.0273521 -0.000871301)
(-0.0785442 -0.019256 -0.00286495)
(-0.0736488 -0.0151784 -0.00438618)
(-0.0736443 -0.0148834 -0.00316203)
(-0.0702986 -0.0118436 -0.00264365)
(-0.0715186 -0.00875466 -0.00441555)
(-0.0677969 -0.00928978 -0.00287092)
(-0.0682149 -0.00584615 -0.00362888)
(-0.0642809 -0.00556286 -0.00320088)
(-0.0628492 -0.00295721 -0.00295936)
(-0.0588879 -0.00117529 -0.00283005)
(-0.0561637 0.000542071 -0.00225815)
(-0.0519255 0.00219336 -0.00223133)
(-0.0483028 0.00303042 -0.00178433)
(0.00504097 0.839368 0.183301)
(-0.170418 0.324607 0.0205042)
(0.0907151 0.288948 -0.0399366)
(-0.00543517 0.293108 -0.0290671)
(-0.0872199 0.0108999 0.044326)
(-0.170015 -0.188342 0.0122215)
(-0.221356 -0.119025 -0.0178774)
(-0.144665 -0.00739281 -0.0550653)
(-0.166178 -0.0293696 -0.0126043)
(-0.141241 0.00301847 -0.0122927)
(-0.126612 0.0326504 -0.00908821)
(-0.159471 0.0167681 -0.035946)
(-0.169693 -0.00336296 -0.0166642)
(-0.147745 -0.0107912 0.00174889)
(-0.145783 -0.036278 -0.00341041)
(-0.111379 -0.0411853 -0.00278118)
(-0.104762 -0.0442402 0.00605481)
(-0.0877661 -0.0435918 -0.0037388)
(-0.0921374 -0.0448347 -0.000140904)
(-0.0835501 -0.0392333 -0.00480872)
(-0.0866513 -0.0404616 -0.000498815)
(-0.0811654 -0.0297488 -0.00719958)
(-0.0842186 -0.0319604 -0.00387417)
(-0.0725916 -0.0347633 0.00366765)
(-0.0762764 -0.0210117 -0.00442002)
(-0.0720668 -0.0176868 -0.00158458)
(-0.070201 -0.0175519 -0.00172685)
(-0.069978 -0.0123779 -0.00179424)
(-0.0700193 -0.0100231 -0.00283182)
(-0.0674237 -0.0105799 -0.0024401)
(-0.0670574 -0.00754293 -0.00257992)
(-0.0638987 -0.00743345 -0.00305444)
(-0.0612716 -0.00566344 -0.00264368)
(-0.0578825 -0.00419044 -0.00257563)
(-0.0546795 -0.00283569 -0.00229255)
(-0.0508976 -0.00157443 -0.00208898)
(-0.0474191 -0.000702485 -0.00188462)
(0.229687 1.97831 0.0448748)
(0.291923 1.22541 -0.247236)
(0.384087 0.951751 -0.182833)
(0.286839 0.735704 -0.0495194)
(0.192631 0.442941 -0.0454578)
(0.151198 0.227006 -0.0311977)
(0.0399326 0.158602 -0.0301142)
(0.00730987 0.158514 -0.0542569)
(-0.00366531 0.166149 -0.031451)
(-0.0250989 0.14267 -0.0314198)
(-0.041839 0.162661 -0.000813745)
(-0.0646824 0.138361 0.0450412)
(-0.0872228 0.0791597 0.0280039)
(-0.0919928 0.0220901 0.00399189)
(-0.0753625 -0.0158562 0.00123423)
(-0.0793928 -0.0302834 -0.00714299)
(-0.0550115 -0.0356315 0.000296349)
(-0.0630904 -0.0312206 0.00587851)
(-0.0543717 -0.0312951 0.000821753)
(-0.0590317 -0.0276295 -0.00160285)
(-0.0595676 -0.0264842 -0.0044783)
(-0.069814 -0.0232068 -0.00992796)
(-0.0738704 -0.024528 -0.00906768)
(-0.0706673 -0.0320689 -0.000118774)
(-0.0754373 -0.01824 -0.00235298)
(-0.0631122 -0.0125198 -0.00414931)
(-0.0688712 -0.013714 -0.000709457)
(-0.0669738 -0.00541552 -0.00303557)
(-0.0686508 -0.0053126 -0.00230688)
(-0.0657082 -0.00518298 -0.00397993)
(-0.0664469 -0.00232414 -0.00256939)
(-0.0621317 -0.00330155 -0.00399362)
(-0.060481 -0.00147987 -0.00310714)
(-0.0564037 -0.000431174 -0.00315721)
(-0.0539477 9.36777e-05 -0.00271627)
(-0.0501446 0.00130861 -0.00257859)
(-0.0472413 0.00149822 -0.00224285)
(0.259087 0.32675 0.191)
(0.133583 0.0957619 0.20733)
(-0.0461064 0.153808 0.231656)
(0.0461115 0.291923 0.11592)
(0.118098 0.152447 0.111137)
(-0.180102 -0.259178 0.129867)
(-0.240619 -0.195726 0.0259924)
(-0.209644 -0.0754745 0.0179675)
(-0.168115 -0.00589806 0.0641805)
(-0.138154 0.00999959 0.0574238)
(-0.107336 0.0412343 0.0631728)
(-0.115019 0.040977 0.0538542)
(-0.0978793 0.0308533 0.0081089)
(-0.0931473 -0.0178742 0.00402507)
(-0.070416 -0.0504778 -0.00265885)
(-0.0546841 -0.0510354 -0.0169862)
(-0.0245401 -0.0410306 -0.0224514)
(-0.00749951 -0.0356742 -0.0110515)
(-0.00194777 -0.0414108 0.000632803)
(-0.0166674 -0.0308225 -0.000644349)
(-0.0228845 -0.0327612 -0.00244829)
(-0.041076 -0.0107092 0.00343225)
(-0.0371825 -0.0185313 -0.0155236)
(-0.0537537 -0.0387413 0.00310237)
(-0.0719674 -0.0293686 0.000851118)
(-0.0476845 -0.016197 -0.0080363)
(-0.0737974 -0.0146526 0.00481628)
(-0.0589991 -0.00305005 -0.00111797)
(-0.0707128 -0.00532526 -0.000686743)
(-0.0629504 -0.00435455 -0.0016363)
(-0.0685314 -0.00251634 -0.00101226)
(-0.0600546 -0.00358011 -0.0035727)
(-0.0618425 -0.00265549 -0.00152825)
(-0.0547364 -0.001777 -0.00299538)
(-0.0543064 -0.00177059 -0.00165562)
(-0.0493118 -0.000876978 -0.00217875)