/*--------------------------------*- C++ -*----------------------------------*\
| =========                 |                                                 |
| \\      /  F ield         | OpenFOAM: The Open Source CFD Toolbox           |
|  \\    /   O peration     | Version:  2.3.1                                 |
|   \\  /    A nd           | Web:      www.OpenFOAM.org                      |
|    \\/     M anipulation  |                                                 |
\*---------------------------------------------------------------------------*/
FoamFile
{
    version     2.0;
    format      ascii;
    class       volScalarField;
    location    "5";
    object      p;
}
// * * * * * * * * * * * * * * * * * * * * * * * * * * * * * * * * * * * * * //

dimensions      [0 2 -2 0 0 0 0];

internalField   nonuniform List<scalar> 
303072
(
-1.37585
-1.37583
-1.37591
-1.37619
-1.37613
-1.3756
-1.37514
-1.37486
-1.37473
-1.37465
-1.37463
-1.37466
-1.37587
-1.37585
-1.37596
-1.37622
-1.37611
-1.37559
-1.37514
-1.37485
-1.3747
-1.37464
-1.37463
-1.37466
-1.37588
-1.37587
-1.37598
-1.37621
-1.37609
-1.37559
-1.37515
-1.37485
-1.3747
-1.37463
-1.37463
-1.37466
-1.3759
-1.37588
-1.37601
-1.37622
-1.37608
-1.3756
-1.37516
-1.37486
-1.37469
-1.37463
-1.37463
-1.37466
-1.37591
-1.37589
-1.37602
-1.37621
-1.37607
-1.3756
-1.37517
-1.37487
-1.37469
-1.37463
-1.37463
-1.37466
-1.37592
-1.3759
-1.37603
-1.37622
-1.37607
-1.3756
-1.37517
-1.37487
-1.37469
-1.37463
-1.37463
-1.37466
-1.37592
-1.3759
-1.37603
-1.37621
-1.37607
-1.3756
-1.37517
-1.37487
-1.37469
-1.37463
-1.37463
-1.37466
-1.37591
-1.37589
-1.37602
-1.37621
-1.37607
-1.3756
-1.37517
-1.37487
-1.37469
-1.37463
-1.37463
-1.37466
-1.3759
-1.37588
-1.37601
-1.37622
-1.37608
-1.3756
-1.37516
-1.37486
-1.37469
-1.37463
-1.37463
-1.37466
-1.37588
-1.37587
-1.37598
-1.37621
-1.37609
-1.37559
-1.37515
-1.37485
-1.3747
-1.37463
-1.37463
-1.37466
-1.37587
-1.37585
-1.37596
-1.37622
-1.37611
-1.37559
-1.37514
-1.37485
-1.3747
-1.37464
-1.37463
-1.37466
-1.37585
-1.37583
-1.37591
-1.37619
-1.37613
-1.3756
-1.37514
-1.37486
-1.37473
-1.37465
-1.37463
-1.37466
-1.48618
-1.48616
-1.48629
-1.48664
-1.48663
-1.48606
-1.48556
-1.48527
-1.4851
-1.485
-1.48498
-1.48501
-1.48619
-1.48615
-1.48634
-1.48668
-1.4866
-1.48604
-1.48555
-1.48524
-1.48506
-1.48499
-1.48499
-1.48502
-1.4862
-1.48618
-1.48636
-1.48666
-1.48657
-1.48604
-1.48556
-1.48524
-1.48506
-1.48499
-1.48499
-1.48502
-1.48621
-1.48619
-1.48639
-1.48667
-1.48656
-1.48605
-1.48557
-1.48524
-1.48505
-1.48498
-1.48499
-1.48502
-1.48622
-1.48621
-1.48641
-1.48666
-1.48655
-1.48605
-1.48558
-1.48525
-1.48505
-1.48498
-1.48499
-1.48502
-1.48623
-1.48622
-1.48642
-1.48666
-1.48655
-1.48605
-1.48559
-1.48525
-1.48506
-1.48498
-1.48499
-1.48502
-1.48623
-1.48622
-1.48642
-1.48666
-1.48655
-1.48605
-1.48559
-1.48525
-1.48506
-1.48498
-1.48499
-1.48502
-1.48622
-1.48621
-1.48641
-1.48666
-1.48655
-1.48605
-1.48558
-1.48525
-1.48505
-1.48498
-1.48499
-1.48502
-1.48621
-1.48619
-1.48639
-1.48667
-1.48656
-1.48605
-1.48557
-1.48524
-1.48505
-1.48498
-1.48499
-1.48502
-1.4862
-1.48618
-1.48636
-1.48666
-1.48657
-1.48604
-1.48556
-1.48524
-1.48506
-1.48499
-1.48499
-1.48502
-1.48619
-1.48615
-1.48634
-1.48668
-1.4866
-1.48604
-1.48555
-1.48524
-1.48506
-1.48499
-1.48499
-1.48502
-1.48618
-1.48616
-1.48629
-1.48664
-1.48663
-1.48606
-1.48556
-1.48527
-1.4851
-1.485
-1.48498
-1.48501
-1.59664
-1.59653
-1.59672
-1.5972
-1.59721
-1.59654
-1.59599
-1.59565
-1.59546
-1.59537
-1.59536
-1.59539
-1.59667
-1.59656
-1.59678
-1.59724
-1.59717
-1.59653
-1.59599
-1.59564
-1.59545
-1.59537
-1.59536
-1.59539
-1.5967
-1.59658
-1.5968
-1.59721
-1.59713
-1.59653
-1.596
-1.59564
-1.59544
-1.59536
-1.59536
-1.59539
-1.59672
-1.5966
-1.59683
-1.5972
-1.59712
-1.59654
-1.59601
-1.59565
-1.59544
-1.59536
-1.59536
-1.59538
-1.59674
-1.59662
-1.59684
-1.59719
-1.5971
-1.59654
-1.59602
-1.59565
-1.59544
-1.59536
-1.59535
-1.59538
-1.59674
-1.59663
-1.59685
-1.59719
-1.5971
-1.59654
-1.59603
-1.59566
-1.59544
-1.59536
-1.59535
-1.59538
-1.59674
-1.59663
-1.59685
-1.59719
-1.5971
-1.59654
-1.59603
-1.59566
-1.59544
-1.59536
-1.59535
-1.59538
-1.59674
-1.59662
-1.59684
-1.59719
-1.5971
-1.59654
-1.59602
-1.59565
-1.59544
-1.59536
-1.59535
-1.59538
-1.59672
-1.5966
-1.59683
-1.5972
-1.59712
-1.59654
-1.59601
-1.59565
-1.59544
-1.59536
-1.59536
-1.59538
-1.5967
-1.59658
-1.5968
-1.59721
-1.59713
-1.59653
-1.596
-1.59564
-1.59544
-1.59536
-1.59536
-1.59539
-1.59667
-1.59656
-1.59678
-1.59724
-1.59717
-1.59653
-1.59599
-1.59564
-1.59545
-1.59537
-1.59536
-1.59539
-1.59664
-1.59653
-1.59672
-1.5972
-1.59721
-1.59654
-1.59599
-1.59565
-1.59546
-1.59537
-1.59536
-1.59539
-1.70683
-1.70668
-1.70689
-1.7078
-1.70797
-1.70717
-1.70647
-1.70607
-1.70587
-1.70577
-1.70575
-1.70576
-1.70678
-1.70665
-1.7071
-1.7079
-1.70793
-1.70717
-1.70648
-1.70606
-1.70584
-1.70575
-1.70574
-1.70576
-1.70678
-1.7067
-1.70714
-1.70784
-1.70786
-1.70716
-1.70649
-1.70606
-1.70582
-1.70574
-1.70573
-1.70576
-1.70677
-1.70671
-1.70719
-1.70786
-1.70784
-1.70716
-1.70651
-1.70606
-1.70582
-1.70574
-1.70573
-1.70576
-1.70677
-1.70673
-1.7072
-1.70783
-1.70781
-1.70716
-1.70651
-1.70607
-1.70582
-1.70573
-1.70573
-1.70576
-1.70677
-1.70674
-1.70721
-1.70782
-1.7078
-1.70716
-1.70652
-1.70607
-1.70582
-1.70573
-1.70573
-1.70576
-1.70677
-1.70674
-1.70721
-1.70782
-1.7078
-1.70716
-1.70652
-1.70607
-1.70582
-1.70573
-1.70573
-1.70576
-1.70677
-1.70673
-1.7072
-1.70783
-1.70781
-1.70716
-1.70651
-1.70607
-1.70582
-1.70573
-1.70573
-1.70576
-1.70677
-1.70671
-1.70719
-1.70786
-1.70784
-1.70716
-1.70651
-1.70606
-1.70582
-1.70574
-1.70573
-1.70576
-1.70678
-1.7067
-1.70714
-1.70784
-1.70786
-1.70716
-1.70649
-1.70606
-1.70582
-1.70574
-1.70573
-1.70576
-1.70678
-1.70665
-1.7071
-1.7079
-1.70793
-1.70717
-1.70648
-1.70606
-1.70584
-1.70575
-1.70574
-1.70576
-1.70683
-1.70668
-1.70689
-1.7078
-1.70797
-1.70717
-1.70647
-1.70607
-1.70587
-1.70577
-1.70575
-1.70576
-1.81752
-1.81712
-1.81741
-1.81834
-1.81853
-1.81775
-1.81697
-1.81651
-1.81628
-1.81617
-1.81614
-1.81615
-1.81763
-1.81716
-1.81764
-1.81848
-1.81855
-1.81776
-1.81698
-1.81649
-1.81624
-1.81614
-1.81613
-1.81614
-1.8177
-1.8172
-1.81766
-1.81841
-1.81848
-1.81775
-1.81699
-1.81649
-1.81623
-1.81613
-1.81612
-1.81614
-1.81774
-1.81726
-1.81771
-1.81839
-1.81843
-1.81774
-1.817
-1.8165
-1.81623
-1.81613
-1.81612
-1.81614
-1.81776
-1.81728
-1.81772
-1.81836
-1.81839
-1.81772
-1.81701
-1.81651
-1.81623
-1.81613
-1.81611
-1.81613
-1.81777
-1.81729
-1.81773
-1.81835
-1.81837
-1.81772
-1.81701
-1.81651
-1.81623
-1.81613
-1.81611
-1.81613
-1.81777
-1.81729
-1.81773
-1.81835
-1.81837
-1.81772
-1.81701
-1.81651
-1.81623
-1.81613
-1.81611
-1.81613
-1.81776
-1.81728
-1.81772
-1.81836
-1.81839
-1.81772
-1.81701
-1.81651
-1.81623
-1.81613
-1.81611
-1.81613
-1.81774
-1.81726
-1.81771
-1.81839
-1.81843
-1.81774
-1.817
-1.8165
-1.81623
-1.81613
-1.81612
-1.81614
-1.8177
-1.8172
-1.81766
-1.8184
-1.81848
-1.81775
-1.81699
-1.81649
-1.81623
-1.81613
-1.81612
-1.81614
-1.81763
-1.81716
-1.81764
-1.81848
-1.81855
-1.81776
-1.81698
-1.81649
-1.81624
-1.81614
-1.81613
-1.81614
-1.81752
-1.81712
-1.81741
-1.81834
-1.81853
-1.81775
-1.81697
-1.81651
-1.81628
-1.81617
-1.81614
-1.81615
-1.92764
-1.9276
-1.92793
-1.92872
-1.92892
-1.92825
-1.92746
-1.92695
-1.9267
-1.92658
-1.92653
-1.92653
-1.92766
-1.92761
-1.92808
-1.92888
-1.92901
-1.92828
-1.92747
-1.92693
-1.92666
-1.92655
-1.92652
-1.92653
-1.92767
-1.92763
-1.92809
-1.92882
-1.92894
-1.92826
-1.92748
-1.92694
-1.92665
-1.92654
-1.92651
-1.92652
-1.92769
-1.92767
-1.92812
-1.92879
-1.92888
-1.92824
-1.92749
-1.92695
-1.92666
-1.92654
-1.92651
-1.92652
-1.9277
-1.92769
-1.92813
-1.92875
-1.92883
-1.92822
-1.9275
-1.92696
-1.92666
-1.92654
-1.92651
-1.92652
-1.92771
-1.9277
-1.92813
-1.92874
-1.92881
-1.92821
-1.9275
-1.92697
-1.92666
-1.92654
-1.92651
-1.92652
-1.92771
-1.9277
-1.92813
-1.92874
-1.92881
-1.92821
-1.9275
-1.92697
-1.92666
-1.92654
-1.92651
-1.92652
-1.9277
-1.92769
-1.92813
-1.92875
-1.92883
-1.92822
-1.9275
-1.92696
-1.92666
-1.92654
-1.92651
-1.92652
-1.92769
-1.92767
-1.92812
-1.92879
-1.92888
-1.92824
-1.92749
-1.92695
-1.92666
-1.92654
-1.92651
-1.92652
-1.92767
-1.92763
-1.92809
-1.92882
-1.92893
-1.92826
-1.92748
-1.92694
-1.92665
-1.92654
-1.92651
-1.92652
-1.92766
-1.92761
-1.92808
-1.92888
-1.92901
-1.92828
-1.92747
-1.92693
-1.92666
-1.92655
-1.92652
-1.92653
-1.92764
-1.9276
-1.92793
-1.92872
-1.92892
-1.92825
-1.92746
-1.92695
-1.9267
-1.92658
-1.92653
-1.92653
-2.03816
-2.03807
-2.03841
-2.03907
-2.03926
-2.03868
-2.03791
-2.03738
-2.03711
-2.03698
-2.03693
-2.03692
-2.0382
-2.03811
-2.03853
-2.03921
-2.03934
-2.03871
-2.03792
-2.03738
-2.03708
-2.03696
-2.03692
-2.03692
-2.03823
-2.03814
-2.03853
-2.03915
-2.03927
-2.03868
-2.03793
-2.03739
-2.03708
-2.03695
-2.03691
-2.03691
-2.03826
-2.03817
-2.03855
-2.03912
-2.03921
-2.03865
-2.03794
-2.0374
-2.03709
-2.03695
-2.03691
-2.03691
-2.03828
-2.03819
-2.03855
-2.03908
-2.03915
-2.03863
-2.03794
-2.03741
-2.03709
-2.03695
-2.03691
-2.03691
-2.03829
-2.0382
-2.03856
-2.03906
-2.03913
-2.03862
-2.03794
-2.03741
-2.03709
-2.03695
-2.03691
-2.03691
-2.03829
-2.0382
-2.03856
-2.03906
-2.03913
-2.03862
-2.03794
-2.03741
-2.03709
-2.03695
-2.03691
-2.03691
-2.03828
-2.03819
-2.03855
-2.03908
-2.03915
-2.03863
-2.03794
-2.03741
-2.03709
-2.03695
-2.03691
-2.03691
-2.03826
-2.03817
-2.03855
-2.03912
-2.03921
-2.03865
-2.03794
-2.0374
-2.03709
-2.03695
-2.03691
-2.03691
-2.03823
-2.03814
-2.03853
-2.03915
-2.03927
-2.03868
-2.03793
-2.03739
-2.03708
-2.03695
-2.03691
-2.03691
-2.0382
-2.03811
-2.03853
-2.03921
-2.03934
-2.03871
-2.03792
-2.03738
-2.03708
-2.03696
-2.03692
-2.03692
-2.03816
-2.03807
-2.03841
-2.03907
-2.03926
-2.03868
-2.03791
-2.03738
-2.03711
-2.03698
-2.03693
-2.03692
-2.14847
-2.1485
-2.14882
-2.14934
-2.1495
-2.14901
-2.1483
-2.1478
-2.14752
-2.14738
-2.14733
-2.14731
-2.1485
-2.14853
-2.14888
-2.14943
-2.14956
-2.14903
-2.14832
-2.1478
-2.1475
-2.14737
-2.14732
-2.14731
-2.14851
-2.14854
-2.14888
-2.14938
-2.14949
-2.149
-2.14832
-2.14781
-2.1475
-2.14736
-2.14731
-2.1473
-2.14853
-2.14857
-2.14888
-2.14934
-2.14943
-2.14897
-2.14833
-2.14782
-2.14751
-2.14736
-2.14731
-2.1473
-2.14854
-2.14858
-2.14888
-2.1493
-2.14937
-2.14894
-2.14833
-2.14783
-2.14751
-2.14736
-2.14731
-2.1473
-2.14854
-2.14859
-2.14888
-2.14929
-2.14935
-2.14893
-2.14833
-2.14783
-2.14752
-2.14736
-2.14731
-2.1473
-2.14854
-2.14859
-2.14888
-2.14929
-2.14935
-2.14893
-2.14833
-2.14783
-2.14752
-2.14736
-2.14731
-2.1473
-2.14854
-2.14858
-2.14888
-2.1493
-2.14937
-2.14894
-2.14833
-2.14782
-2.14751
-2.14736
-2.14731
-2.1473
-2.14853
-2.14857
-2.14888
-2.14934
-2.14943
-2.14897
-2.14833
-2.14782
-2.14751
-2.14736
-2.14731
-2.1473
-2.14851
-2.14854
-2.14888
-2.14938
-2.14949
-2.149
-2.14832
-2.14781
-2.1475
-2.14736
-2.14731
-2.1473
-2.1485
-2.14853
-2.14888
-2.14943
-2.14956
-2.14903
-2.14832
-2.1478
-2.1475
-2.14737
-2.14732
-2.14731
-2.14847
-2.1485
-2.14882
-2.14934
-2.1495
-2.14901
-2.1483
-2.1478
-2.14752
-2.14738
-2.14733
-2.14731
-2.25886
-2.25889
-2.25917
-2.25958
-2.2597
-2.25928
-2.25865
-2.25819
-2.25792
-2.25778
-2.25772
-2.2577
-2.25886
-2.2589
-2.25919
-2.25961
-2.25971
-2.25927
-2.25866
-2.25819
-2.25791
-2.25777
-2.25771
-2.2577
-2.25888
-2.25891
-2.25918
-2.25956
-2.25963
-2.25923
-2.25866
-2.2582
-2.25791
-2.25777
-2.25771
-2.2577
-2.2589
-2.25893
-2.25918
-2.25952
-2.25958
-2.2592
-2.25866
-2.25821
-2.25792
-2.25777
-2.25771
-2.2577
-2.25891
-2.25894
-2.25917
-2.25949
-2.25953
-2.25918
-2.25866
-2.25821
-2.25792
-2.25777
-2.25771
-2.2577
-2.25891
-2.25894
-2.25917
-2.25948
-2.25952
-2.25917
-2.25866
-2.25822
-2.25792
-2.25777
-2.25771
-2.2577
-2.25891
-2.25894
-2.25917
-2.25948
-2.25952
-2.25917
-2.25866
-2.25822
-2.25792
-2.25777
-2.25771
-2.2577
-2.25891
-2.25894
-2.25917
-2.25949
-2.25953
-2.25918
-2.25866
-2.25821
-2.25792
-2.25777
-2.25771
-2.2577
-2.2589
-2.25893
-2.25918
-2.25952
-2.25958
-2.2592
-2.25866
-2.25821
-2.25792
-2.25777
-2.25771
-2.2577
-2.25888
-2.25891
-2.25918
-2.25956
-2.25963
-2.25923
-2.25866
-2.2582
-2.25791
-2.25777
-2.25771
-2.2577
-2.25886
-2.2589
-2.25919
-2.25961
-2.25971
-2.25927
-2.25866
-2.25819
-2.25791
-2.25777
-2.25771
-2.2577
-2.25886
-2.25889
-2.25917
-2.25958
-2.2597
-2.25927
-2.25865
-2.25819
-2.25792
-2.25778
-2.25772
-2.2577
-2.36916
-2.36922
-2.36945
-2.36976
-2.36984
-2.36949
-2.36896
-2.36856
-2.36831
-2.36818
-2.36812
-2.36809
-2.36917
-2.36922
-2.36945
-2.36976
-2.36981
-2.36946
-2.36896
-2.36856
-2.36831
-2.36817
-2.36811
-2.36809
-2.36918
-2.36923
-2.36944
-2.36971
-2.36975
-2.36943
-2.36896
-2.36857
-2.36831
-2.36817
-2.36811
-2.36809
-2.3692
-2.36925
-2.36944
-2.36968
-2.3697
-2.3694
-2.36896
-2.36857
-2.36831
-2.36817
-2.36811
-2.36809
-2.3692
-2.36925
-2.36944
-2.36966
-2.36967
-2.36938
-2.36896
-2.36858
-2.36832
-2.36817
-2.36811
-2.36809
-2.36921
-2.36926
-2.36944
-2.36965
-2.36966
-2.36938
-2.36896
-2.36858
-2.36832
-2.36817
-2.36811
-2.36809
-2.36921
-2.36926
-2.36944
-2.36965
-2.36966
-2.36938
-2.36896
-2.36858
-2.36832
-2.36817
-2.36811
-2.36809
-2.3692
-2.36925
-2.36944
-2.36966
-2.36967
-2.36938
-2.36896
-2.36858
-2.36832
-2.36817
-2.36811
-2.36809
-2.3692
-2.36925
-2.36944
-2.36968
-2.3697
-2.3694
-2.36896
-2.36857
-2.36831
-2.36817
-2.36811
-2.36809
-2.36918
-2.36923
-2.36944
-2.36971
-2.36975
-2.36943
-2.36896
-2.36857
-2.36831
-2.36817
-2.36811
-2.36809
-2.36917
-2.36922
-2.36945
-2.36976
-2.36981
-2.36946
-2.36896
-2.36856
-2.36831
-2.36817
-2.36811
-2.36809
-2.36916
-2.36922
-2.36945
-2.36976
-2.36984
-2.36949
-2.36896
-2.36856
-2.36831
-2.36818
-2.36812
-2.36809
-2.47948
-2.47953
-2.47971
-2.47993
-2.47997
-2.47968
-2.47925
-2.47891
-2.4787
-2.47857
-2.47851
-2.47848
-2.47948
-2.47953
-2.47969
-2.4799
-2.47992
-2.47964
-2.47925
-2.47892
-2.4787
-2.47857
-2.47851
-2.47848
-2.47949
-2.47954
-2.47969
-2.47987
-2.47988
-2.47962
-2.47925
-2.47892
-2.4787
-2.47857
-2.47851
-2.47848
-2.4795
-2.47954
-2.47969
-2.47985
-2.47984
-2.4796
-2.47925
-2.47893
-2.4787
-2.47857
-2.47851
-2.47848
-2.4795
-2.47955
-2.47968
-2.47983
-2.47982
-2.47959
-2.47925
-2.47893
-2.4787
-2.47857
-2.47851
-2.47848
-2.4795
-2.47955
-2.47968
-2.47983
-2.47981
-2.47958
-2.47925
-2.47893
-2.4787
-2.47857
-2.47851
-2.47848
-2.4795
-2.47955
-2.47968
-2.47983
-2.47981
-2.47958
-2.47925
-2.47893
-2.4787
-2.47857
-2.47851
-2.47848
-2.4795
-2.47955
-2.47968
-2.47983
-2.47982
-2.47959
-2.47925
-2.47893
-2.4787
-2.47857
-2.47851
-2.47848
-2.47949
-2.47954
-2.47969
-2.47985
-2.47984
-2.4796
-2.47925
-2.47893
-2.4787
-2.47857
-2.47851
-2.47848
-2.47949
-2.47954
-2.47969
-2.47987
-2.47987
-2.47962
-2.47925
-2.47892
-2.4787
-2.47857
-2.47851
-2.47848
-2.47948
-2.47953
-2.47969
-2.4799
-2.47992
-2.47964
-2.47925
-2.47892
-2.4787
-2.47857
-2.47851
-2.47848
-2.47948
-2.47953
-2.47971
-2.47993
-2.47997
-2.47968
-2.47925
-2.47891
-2.47869
-2.47857
-2.47851
-2.47848
-2.58977
-2.58982
-2.58994
-2.59009
-2.59009
-2.58986
-2.58953
-2.58926
-2.58907
-2.58896
-2.5889
-2.58887
-2.58977
-2.58982
-2.58993
-2.59006
-2.59006
-2.58984
-2.58953
-2.58926
-2.58907
-2.58896
-2.5889
-2.58886
-2.58978
-2.58982
-2.58993
-2.59004
-2.59003
-2.58982
-2.58953
-2.58926
-2.58907
-2.58896
-2.5889
-2.58887
-2.58979
-2.58983
-2.58993
-2.59003
-2.59001
-2.58981
-2.58953
-2.58927
-2.58908
-2.58896
-2.5889
-2.58887
-2.58979
-2.58983
-2.58993
-2.59002
-2.58999
-2.5898
-2.58953
-2.58927
-2.58908
-2.58896
-2.5889
-2.58887
-2.58979
-2.58984
-2.58993
-2.59002
-2.58999
-2.5898
-2.58953
-2.58927
-2.58908
-2.58896
-2.5889
-2.58887
-2.58979
-2.58984
-2.58993
-2.59002
-2.58999
-2.5898
-2.58953
-2.58927
-2.58908
-2.58896
-2.5889
-2.58887
-2.58979
-2.58983
-2.58993
-2.59002
-2.58999
-2.5898
-2.58953
-2.58927
-2.58908
-2.58896
-2.5889
-2.58887
-2.58979
-2.58983
-2.58993
-2.59003
-2.59001
-2.58981
-2.58953
-2.58927
-2.58908
-2.58896
-2.5889
-2.58887
-2.58978
-2.58982
-2.58993
-2.59004
-2.59003
-2.58982
-2.58953
-2.58926
-2.58907
-2.58896
-2.5889
-2.58887
-2.58977
-2.58982
-2.58993
-2.59006
-2.59006
-2.58984
-2.58953
-2.58926
-2.58907
-2.58896
-2.5889
-2.58886
-2.58977
-2.58981
-2.58994
-2.59009
-2.59009
-2.58986
-2.58953
-2.58926
-2.58907
-2.58896
-2.5889
-2.58887
-2.70007
-2.7001
-2.70018
-2.70027
-2.70025
-2.70007
-2.69982
-2.6996
-2.69945
-2.69935
-2.69929
-2.69925
-2.70007
-2.7001
-2.70018
-2.70025
-2.70023
-2.70006
-2.69982
-2.69961
-2.69945
-2.69935
-2.69929
-2.69925
-2.70008
-2.70011
-2.70018
-2.70024
-2.70021
-2.70005
-2.69982
-2.69961
-2.69945
-2.69935
-2.69929
-2.69925
-2.70008
-2.70011
-2.70018
-2.70024
-2.7002
-2.70005
-2.69983
-2.69961
-2.69945
-2.69935
-2.69929
-2.69925
-2.70008
-2.70012
-2.70018
-2.70023
-2.70019
-2.70004
-2.69983
-2.69961
-2.69945
-2.69935
-2.69929
-2.69925
-2.70008
-2.70012
-2.70018
-2.70023
-2.70019
-2.70004
-2.69983
-2.69962
-2.69946
-2.69935
-2.69929
-2.69925
-2.70008
-2.70012
-2.70018
-2.70023
-2.70019
-2.70004
-2.69983
-2.69962
-2.69946
-2.69935
-2.69929
-2.69925
-2.70008
-2.70012
-2.70018
-2.70023
-2.70019
-2.70004
-2.69983
-2.69961
-2.69945
-2.69935
-2.69929
-2.69925
-2.70008
-2.70011
-2.70018
-2.70024
-2.7002
-2.70005
-2.69983
-2.69961
-2.69945
-2.69935
-2.69929
-2.69925
-2.70007
-2.70011
-2.70018
-2.70024
-2.70021
-2.70005
-2.69982
-2.69961
-2.69945
-2.69935
-2.69929
-2.69925
-2.70007
-2.7001
-2.70018
-2.70025
-2.70023
-2.70006
-2.69982
-2.69961
-2.69945
-2.69935
-2.69929
-2.69925
-2.70007
-2.7001
-2.70018
-2.70027
-2.70025
-2.70007
-2.69982
-2.6996
-2.69945
-2.69935
-2.69929
-2.69925
-2.81037
-2.81039
-2.81044
-2.81048
-2.81045
-2.81031
-2.81012
-2.80995
-2.80982
-2.80973
-2.80967
-2.80963
-2.81037
-2.81039
-2.81044
-2.81048
-2.81044
-2.81031
-2.81013
-2.80995
-2.80982
-2.80973
-2.80967
-2.80963
-2.81037
-2.8104
-2.81044
-2.81047
-2.81043
-2.8103
-2.81013
-2.80995
-2.80982
-2.80973
-2.80967
-2.80963
-2.81038
-2.8104
-2.81044
-2.81047
-2.81043
-2.8103
-2.81013
-2.80996
-2.80982
-2.80973
-2.80967
-2.80964
-2.81038
-2.81041
-2.81044
-2.81047
-2.81043
-2.8103
-2.81013
-2.80996
-2.80983
-2.80973
-2.80967
-2.80964
-2.81038
-2.81041
-2.81044
-2.81047
-2.81043
-2.8103
-2.81013
-2.80996
-2.80983
-2.80973
-2.80967
-2.80964
-2.81038
-2.81041
-2.81044
-2.81047
-2.81043
-2.8103
-2.81013
-2.80996
-2.80983
-2.80973
-2.80967
-2.80964
-2.81038
-2.81041
-2.81044
-2.81047
-2.81043
-2.8103
-2.81013
-2.80996
-2.80983
-2.80973
-2.80967
-2.80964
-2.81038
-2.8104
-2.81044
-2.81047
-2.81043
-2.8103
-2.81013
-2.80996
-2.80982
-2.80973
-2.80967
-2.80964
-2.81037
-2.8104
-2.81044
-2.81047
-2.81043
-2.8103
-2.81013
-2.80995
-2.80982
-2.80973
-2.80967
-2.80963
-2.81037
-2.81039
-2.81044
-2.81048
-2.81044
-2.81031
-2.81013
-2.80995
-2.80982
-2.80973
-2.80967
-2.80963
-2.81037
-2.81039
-2.81044
-2.81048
-2.81045
-2.81031
-2.81012
-2.80995
-2.80982
-2.80973
-2.80967
-2.80963
-2.92068
-2.92069
-2.92072
-2.92073
-2.92069
-2.92058
-2.92044
-2.9203
-2.92019
-2.92011
-2.92005
-2.92001
-2.92068
-2.92069
-2.92072
-2.92073
-2.92069
-2.92058
-2.92044
-2.9203
-2.92019
-2.92011
-2.92005
-2.92001
-2.92068
-2.92069
-2.92072
-2.92073
-2.92069
-2.92058
-2.92044
-2.9203
-2.92019
-2.92011
-2.92005
-2.92001
-2.92068
-2.9207
-2.92072
-2.92073
-2.92069
-2.92058
-2.92044
-2.92031
-2.92019
-2.92011
-2.92005
-2.92002
-2.92068
-2.9207
-2.92072
-2.92073
-2.92069
-2.92058
-2.92045
-2.92031
-2.92019
-2.92011
-2.92006
-2.92002
-2.92068
-2.9207
-2.92072
-2.92073
-2.92069
-2.92058
-2.92045
-2.92031
-2.9202
-2.92011
-2.92006
-2.92002
-2.92068
-2.9207
-2.92072
-2.92073
-2.92069
-2.92058
-2.92045
-2.92031
-2.9202
-2.92011
-2.92006
-2.92002
-2.92068
-2.9207
-2.92072
-2.92073
-2.92069
-2.92058
-2.92045
-2.92031
-2.92019
-2.92011
-2.92006
-2.92002
-2.92068
-2.9207
-2.92072
-2.92073
-2.92069
-2.92058
-2.92044
-2.92031
-2.92019
-2.92011
-2.92005
-2.92002
-2.92068
-2.92069
-2.92072
-2.92073
-2.92069
-2.92058
-2.92044
-2.9203
-2.92019
-2.92011
-2.92005
-2.92001
-2.92068
-2.92069
-2.92072
-2.92073
-2.92069
-2.92058
-2.92044
-2.9203
-2.92019
-2.92011
-2.92005
-2.92001
-2.92068
-2.92069
-2.92072
-2.92073
-2.92069
-2.92058
-2.92044
-2.9203
-2.92019
-2.92011
-2.92005
-2.92001
-3.03099
-3.031
-3.03101
-3.03101
-3.03097
-3.03088
-3.03076
-3.03065
-3.03056
-3.03048
-3.03043
-3.03039
-3.03099
-3.031
-3.03101
-3.03101
-3.03097
-3.03088
-3.03077
-3.03065
-3.03056
-3.03048
-3.03043
-3.03039
-3.03099
-3.031
-3.03101
-3.03101
-3.03097
-3.03088
-3.03077
-3.03065
-3.03056
-3.03048
-3.03043
-3.03039
-3.03099
-3.031
-3.03101
-3.03101
-3.03097
-3.03088
-3.03077
-3.03066
-3.03056
-3.03049
-3.03043
-3.03039
-3.03099
-3.031
-3.03101
-3.03101
-3.03097
-3.03088
-3.03077
-3.03066
-3.03056
-3.03049
-3.03043
-3.03039
-3.03099
-3.031
-3.03102
-3.03101
-3.03097
-3.03088
-3.03077
-3.03066
-3.03056
-3.03049
-3.03043
-3.0304
-3.03099
-3.031
-3.03102
-3.03101
-3.03097
-3.03088
-3.03077
-3.03066
-3.03056
-3.03049
-3.03043
-3.0304
-3.03099
-3.031
-3.03101
-3.03101
-3.03097
-3.03088
-3.03077
-3.03066
-3.03056
-3.03049
-3.03043
-3.03039
-3.03099
-3.031
-3.03101
-3.03101
-3.03097
-3.03088
-3.03077
-3.03066
-3.03056
-3.03049
-3.03043
-3.03039
-3.03099
-3.031
-3.03101
-3.03101
-3.03097
-3.03088
-3.03077
-3.03065
-3.03056
-3.03048
-3.03043
-3.03039
-3.03099
-3.031
-3.03101
-3.03101
-3.03097
-3.03088
-3.03077
-3.03065
-3.03056
-3.03048
-3.03043
-3.03039
-3.03099
-3.031
-3.03101
-3.03101
-3.03097
-3.03088
-3.03076
-3.03065
-3.03056
-3.03048
-3.03043
-3.03039
-3.14131
-3.14131
-3.14132
-3.14131
-3.14127
-3.14119
-3.1411
-3.141
-3.14092
-3.14085
-3.14081
-3.14077
-3.1413
-3.14131
-3.14131
-3.14131
-3.14127
-3.14119
-3.1411
-3.141
-3.14092
-3.14085
-3.14081
-3.14077
-3.1413
-3.14131
-3.14132
-3.14131
-3.14127
-3.14119
-3.1411
-3.141
-3.14092
-3.14086
-3.14081
-3.14077
-3.1413
-3.14131
-3.14132
-3.14131
-3.14127
-3.14119
-3.1411
-3.14101
-3.14092
-3.14086
-3.14081
-3.14077
-3.1413
-3.14131
-3.14132
-3.14131
-3.14127
-3.14119
-3.1411
-3.14101
-3.14093
-3.14086
-3.14081
-3.14077
-3.1413
-3.14131
-3.14132
-3.14131
-3.14127
-3.14119
-3.1411
-3.14101
-3.14093
-3.14086
-3.14081
-3.14077
-3.1413
-3.14131
-3.14132
-3.14131
-3.14127
-3.14119
-3.1411
-3.14101
-3.14093
-3.14086
-3.14081
-3.14077
-3.1413
-3.14131
-3.14132
-3.14131
-3.14127
-3.14119
-3.1411
-3.14101
-3.14093
-3.14086
-3.14081
-3.14077
-3.1413
-3.14131
-3.14132
-3.14131
-3.14127
-3.14119
-3.1411
-3.14101
-3.14092
-3.14086
-3.14081
-3.14077
-3.1413
-3.14131
-3.14132
-3.14131
-3.14127
-3.14119
-3.1411
-3.141
-3.14092
-3.14086
-3.14081
-3.14077
-3.1413
-3.14131
-3.14131
-3.14131
-3.14127
-3.14119
-3.1411
-3.141
-3.14092
-3.14085
-3.14081
-3.14077
-3.14131
-3.14131
-3.14132
-3.14131
-3.14127
-3.14119
-3.1411
-3.141
-3.14092
-3.14085
-3.14081
-3.14077
-3.25163
-3.25163
-3.25163
-3.25162
-3.25158
-3.25151
-3.25144
-3.25136
-3.25128
-3.25123
-3.25118
-3.25114
-3.25163
-3.25163
-3.25163
-3.25162
-3.25158
-3.25151
-3.25144
-3.25136
-3.25128
-3.25123
-3.25118
-3.25114
-3.25162
-3.25163
-3.25163
-3.25162
-3.25158
-3.25152
-3.25144
-3.25136
-3.25129
-3.25123
-3.25118
-3.25114
-3.25162
-3.25163
-3.25163
-3.25162
-3.25158
-3.25152
-3.25144
-3.25136
-3.25129
-3.25123
-3.25118
-3.25115
-3.25162
-3.25163
-3.25163
-3.25162
-3.25158
-3.25152
-3.25144
-3.25136
-3.25129
-3.25123
-3.25118
-3.25115
-3.25162
-3.25163
-3.25163
-3.25162
-3.25158
-3.25152
-3.25144
-3.25136
-3.25129
-3.25123
-3.25118
-3.25115
-3.25162
-3.25163
-3.25163
-3.25162
-3.25158
-3.25152
-3.25144
-3.25136
-3.25129
-3.25123
-3.25118
-3.25115
-3.25162
-3.25163
-3.25163
-3.25162
-3.25158
-3.25152
-3.25144
-3.25136
-3.25129
-3.25123
-3.25118
-3.25115
-3.25162
-3.25163
-3.25163
-3.25162
-3.25158
-3.25152
-3.25144
-3.25136
-3.25129
-3.25123
-3.25118
-3.25115
-3.25162
-3.25163
-3.25163
-3.25162
-3.25158
-3.25151
-3.25144
-3.25136
-3.25129
-3.25123
-3.25118
-3.25114
-3.25163
-3.25163
-3.25163
-3.25162
-3.25158
-3.25151
-3.25144
-3.25136
-3.25128
-3.25123
-3.25118
-3.25114
-3.25163
-3.25163
-3.25163
-3.25162
-3.25158
-3.25151
-3.25144
-3.25136
-3.25128
-3.25123
-3.25118
-3.25114
-3.36196
-3.36196
-3.36195
-3.36194
-3.3619
-3.36184
-3.36178
-3.36171
-3.36165
-3.36159
-3.36155
-3.36152
-3.36195
-3.36195
-3.36195
-3.36193
-3.3619
-3.36185
-3.36178
-3.36171
-3.36165
-3.36159
-3.36155
-3.36152
-3.36195
-3.36195
-3.36195
-3.36193
-3.3619
-3.36185
-3.36178
-3.36171
-3.36165
-3.36159
-3.36155
-3.36152
-3.36194
-3.36195
-3.36195
-3.36194
-3.3619
-3.36185
-3.36178
-3.36171
-3.36165
-3.36159
-3.36155
-3.36152
-3.36194
-3.36195
-3.36195
-3.36194
-3.3619
-3.36185
-3.36178
-3.36171
-3.36165
-3.3616
-3.36155
-3.36152
-3.36194
-3.36195
-3.36195
-3.36194
-3.3619
-3.36185
-3.36178
-3.36171
-3.36165
-3.3616
-3.36155
-3.36152
-3.36194
-3.36195
-3.36195
-3.36194
-3.3619
-3.36185
-3.36178
-3.36171
-3.36165
-3.3616
-3.36155
-3.36152
-3.36194
-3.36195
-3.36195
-3.36194
-3.3619
-3.36185
-3.36178
-3.36171
-3.36165
-3.3616
-3.36155
-3.36152
-3.36194
-3.36195
-3.36195
-3.36194
-3.3619
-3.36185
-3.36178
-3.36171
-3.36165
-3.36159
-3.36155
-3.36152
-3.36195
-3.36195
-3.36195
-3.36193
-3.3619
-3.36185
-3.36178
-3.36171
-3.36165
-3.36159
-3.36155
-3.36152
-3.36195
-3.36195
-3.36195
-3.36193
-3.3619
-3.36185
-3.36178
-3.36171
-3.36165
-3.36159
-3.36155
-3.36152
-3.36196
-3.36196
-3.36195
-3.36194
-3.3619
-3.36184
-3.36178
-3.36171
-3.36165
-3.36159
-3.36155
-3.36152
-3.47229
-3.47229
-3.47228
-3.47226
-3.47223
-3.47218
-3.47212
-3.47206
-3.47201
-3.47196
-3.47192
-3.47189
-3.47228
-3.47228
-3.47228
-3.47226
-3.47223
-3.47218
-3.47212
-3.47206
-3.47201
-3.47196
-3.47192
-3.47189
-3.47228
-3.47228
-3.47228
-3.47226
-3.47223
-3.47218
-3.47212
-3.47207
-3.47201
-3.47196
-3.47192
-3.47189
-3.47227
-3.47228
-3.47228
-3.47226
-3.47223
-3.47218
-3.47213
-3.47207
-3.47201
-3.47196
-3.47192
-3.47189
-3.47227
-3.47228
-3.47228
-3.47226
-3.47223
-3.47218
-3.47213
-3.47207
-3.47201
-3.47196
-3.47192
-3.47189
-3.47227
-3.47228
-3.47228
-3.47226
-3.47223
-3.47218
-3.47213
-3.47207
-3.47201
-3.47196
-3.47192
-3.47189
-3.47227
-3.47228
-3.47228
-3.47226
-3.47223
-3.47218
-3.47213
-3.47207
-3.47201
-3.47196
-3.47192
-3.47189
-3.47227
-3.47228
-3.47228
-3.47226
-3.47223
-3.47218
-3.47213
-3.47207
-3.47201
-3.47196
-3.47192
-3.47189
-3.47227
-3.47228
-3.47228
-3.47226
-3.47223
-3.47218
-3.47213
-3.47207
-3.47201
-3.47196
-3.47192
-3.47189
-3.47228
-3.47228
-3.47228
-3.47226
-3.47223
-3.47218
-3.47212
-3.47207
-3.47201
-3.47196
-3.47192
-3.47189
-3.47228
-3.47228
-3.47228
-3.47226
-3.47223
-3.47218
-3.47212
-3.47206
-3.47201
-3.47196
-3.47192
-3.47189
-3.47229
-3.47229
-3.47228
-3.47226
-3.47223
-3.47218
-3.47212
-3.47206
-3.47201
-3.47196
-3.47192
-3.47189
-3.58262
-3.58262
-3.58261
-3.58259
-3.58256
-3.58252
-3.58247
-3.58242
-3.58237
-3.58233
-3.58229
-3.58226
-3.58261
-3.58262
-3.58261
-3.58259
-3.58256
-3.58252
-3.58247
-3.58242
-3.58237
-3.58233
-3.58229
-3.58226
-3.58261
-3.58261
-3.58261
-3.58259
-3.58256
-3.58252
-3.58247
-3.58242
-3.58237
-3.58233
-3.58229
-3.58226
-3.5826
-3.58261
-3.58261
-3.58259
-3.58256
-3.58252
-3.58247
-3.58242
-3.58237
-3.58233
-3.58229
-3.58226
-3.5826
-3.58261
-3.58261
-3.58259
-3.58256
-3.58252
-3.58247
-3.58242
-3.58237
-3.58233
-3.58229
-3.58226
-3.5826
-3.58261
-3.58261
-3.58259
-3.58256
-3.58252
-3.58247
-3.58242
-3.58237
-3.58233
-3.58229
-3.58226
-3.5826
-3.58261
-3.58261
-3.58259
-3.58256
-3.58252
-3.58247
-3.58242
-3.58237
-3.58233
-3.58229
-3.58226
-3.5826
-3.58261
-3.58261
-3.58259
-3.58256
-3.58252
-3.58247
-3.58242
-3.58237
-3.58233
-3.58229
-3.58226
-3.5826
-3.58261
-3.58261
-3.58259
-3.58256
-3.58252
-3.58247
-3.58242
-3.58237
-3.58233
-3.58229
-3.58226
-3.58261
-3.58261
-3.58261
-3.58259
-3.58256
-3.58252
-3.58247
-3.58242
-3.58237
-3.58233
-3.58229
-3.58226
-3.58261
-3.58262
-3.58261
-3.58259
-3.58256
-3.58252
-3.58247
-3.58242
-3.58237
-3.58233
-3.58229
-3.58226
-3.58262
-3.58262
-3.58261
-3.58259
-3.58256
-3.58252
-3.58247
-3.58242
-3.58237
-3.58233
-3.58229
-3.58226
-3.69296
-3.69295
-3.69295
-3.69293
-3.6929
-3.69286
-3.69282
-3.69278
-3.69273
-3.69269
-3.69266
-3.69263
-3.69295
-3.69295
-3.69295
-3.69293
-3.6929
-3.69286
-3.69282
-3.69278
-3.69273
-3.69269
-3.69266
-3.69263
-3.69294
-3.69295
-3.69294
-3.69293
-3.6929
-3.69286
-3.69282
-3.69278
-3.69273
-3.69269
-3.69266
-3.69263
-3.69294
-3.69295
-3.69294
-3.69293
-3.6929
-3.69287
-3.69282
-3.69278
-3.69273
-3.69269
-3.69266
-3.69263
-3.69294
-3.69295
-3.69294
-3.69293
-3.6929
-3.69287
-3.69282
-3.69278
-3.69273
-3.69269
-3.69266
-3.69263
-3.69294
-3.69295
-3.69294
-3.69293
-3.6929
-3.69287
-3.69282
-3.69278
-3.69273
-3.69269
-3.69266
-3.69263
-3.69294
-3.69295
-3.69294
-3.69293
-3.6929
-3.69287
-3.69282
-3.69278
-3.69273
-3.69269
-3.69266
-3.69263
-3.69294
-3.69295
-3.69294
-3.69293
-3.6929
-3.69287
-3.69282
-3.69278
-3.69273
-3.69269
-3.69266
-3.69263
-3.69294
-3.69295
-3.69294
-3.69293
-3.6929
-3.69287
-3.69282
-3.69278
-3.69273
-3.69269
-3.69266
-3.69263
-3.69294
-3.69295
-3.69294
-3.69293
-3.6929
-3.69286
-3.69282
-3.69278
-3.69273
-3.69269
-3.69266
-3.69263
-3.69295
-3.69295
-3.69294
-3.69293
-3.6929
-3.69286
-3.69282
-3.69278
-3.69273
-3.69269
-3.69266
-3.69263
-3.69296
-3.69295
-3.69295
-3.69293
-3.6929
-3.69286
-3.69282
-3.69278
-3.69273
-3.69269
-3.69266
-3.69263
-3.80329
-3.80329
-3.80328
-3.80327
-3.80324
-3.80321
-3.80317
-3.80313
-3.80309
-3.80306
-3.80302
-3.803
-3.80329
-3.80329
-3.80328
-3.80327
-3.80324
-3.80321
-3.80317
-3.80313
-3.80309
-3.80306
-3.80302
-3.803
-3.80328
-3.80329
-3.80328
-3.80327
-3.80324
-3.80321
-3.80317
-3.80313
-3.80309
-3.80306
-3.80302
-3.803
-3.80328
-3.80329
-3.80328
-3.80327
-3.80324
-3.80321
-3.80317
-3.80313
-3.80309
-3.80306
-3.80302
-3.803
-3.80328
-3.80329
-3.80328
-3.80327
-3.80324
-3.80321
-3.80317
-3.80313
-3.80309
-3.80306
-3.80302
-3.803
-3.80328
-3.80329
-3.80328
-3.80327
-3.80324
-3.80321
-3.80317
-3.80313
-3.80309
-3.80306
-3.80302
-3.803
-3.80328
-3.80329
-3.80328
-3.80327
-3.80324
-3.80321
-3.80317
-3.80313
-3.80309
-3.80306
-3.80302
-3.803
-3.80328
-3.80329
-3.80328
-3.80327
-3.80324
-3.80321
-3.80317
-3.80313
-3.80309
-3.80306
-3.80302
-3.803
-3.80328
-3.80329
-3.80328
-3.80327
-3.80324
-3.80321
-3.80317
-3.80313
-3.80309
-3.80306