/*--------------------------------*- C++ -*----------------------------------*\
| =========                 |                                                 |
| \\      /  F ield         | OpenFOAM: The Open Source CFD Toolbox           |
|  \\    /   O peration     | Version:  2.3.1                                 |
|   \\  /    A nd           | Web:      www.OpenFOAM.org                      |
|    \\/     M anipulation  |                                                 |
\*---------------------------------------------------------------------------*/
FoamFile
{
    version     2.0;
    format      ascii;
    class       volScalarField;
    location    "5";
    object      Sed;
}
// * * * * * * * * * * * * * * * * * * * * * * * * * * * * * * * * * * * * * //

dimensions      [0 0 0 0 0 0 0];

internalField   nonuniform List<scalar> 
303072
(
0.0234862
0.0243932
0.0247377
0.0255697
0.0264046
0.0272597
0.0297551
0.0309073
0.0273641
0.0123161
0.00304574
0.000539572
0.0234566
0.0242445
0.0247042
0.0256514
0.0263645
0.027238
0.0297587
0.031103
0.028686
0.014724
0.0036311
0.000626953
0.023447
0.0242238
0.0247534
0.0256863
0.0263761
0.0272593
0.0297749
0.0311355
0.0289887
0.0154911
0.00384782
0.000660371
0.0234466
0.0242104
0.0247642
0.0257092
0.0264023
0.0273021
0.0298253
0.0311928
0.029217
0.0160856
0.00403577
0.000691754
0.0234462
0.0242062
0.024768
0.0257191
0.0264176
0.0273168
0.0298273
0.0312075
0.0293152
0.0163662
0.00412776
0.0007081
0.0234461
0.0242046
0.0247675
0.0257216
0.0264239
0.0273229
0.0298272
0.0312149
0.029359
0.0164909
0.00416902
0.000715418
0.0234461
0.0242046
0.0247675
0.0257216
0.0264239
0.0273229
0.0298271
0.0312149
0.0293591
0.0164914
0.00416923
0.000715469
0.0234462
0.0242062
0.024768
0.0257191
0.0264176
0.0273168
0.0298272
0.0312075
0.0293156
0.0163675
0.00412833
0.000708237
0.0234466
0.0242104
0.0247642
0.0257092
0.0264023
0.027302
0.0298252
0.0311928
0.0292175
0.0160876
0.00403663
0.000691965
0.023447
0.0242238
0.0247534
0.0256862
0.0263761
0.0272593
0.0297747
0.0311355
0.0289895
0.0154935
0.00384883
0.000660621
0.0234566
0.0242445
0.0247042
0.0256514
0.0263645
0.0272379
0.0297584
0.031103
0.0286869
0.0147267
0.00363218
0.000627224
0.0234862
0.0243932
0.0247377
0.0255697
0.0264046
0.0272596
0.0297549
0.0309075
0.0273657
0.0123191
0.00304683
0.000539839
0.0230188
0.0230272
0.0225716
0.0223607
0.0226896
0.0234415
0.0256173
0.0267787
0.0256142
0.0173683
0.00500332
0.000882151
0.0230326
0.0230298
0.0226962
0.0226978
0.0230539
0.0238223
0.0258452
0.0267452
0.0253203
0.0151361
0.00396533
0.000698709
0.0230329
0.023034
0.0227982
0.0228153
0.0231486
0.02389
0.0258367
0.0266342
0.0251623
0.0148308
0.00384622
0.000683494
0.023033
0.0230346
0.0228442
0.022872
0.0232031
0.0239341
0.0258192
0.0265892
0.0251998
0.0151317
0.00395894
0.00070519
0.0230329
0.0230347
0.0228615
0.0228904
0.0232136
0.0239297
0.0257719
0.0265501
0.0252156
0.0153147
0.00403256
0.000720638
0.0230328
0.0230349
0.0228683
0.0228971
0.0232162
0.0239246
0.0257447
0.0265288
0.0252197
0.0153972
0.00406595
0.000727582
0.0230328
0.0230349
0.0228683
0.0228971
0.0232162
0.0239245
0.0257446
0.0265287
0.0252198
0.0153975
0.0040661
0.00072762
0.0230329
0.0230347
0.0228615
0.0228904
0.0232136
0.0239296
0.0257718
0.0265499
0.0252156
0.0153155
0.00403298
0.000720744
0.023033
0.0230346
0.0228442
0.022872
0.0232031
0.023934
0.025819
0.026589
0.0251999
0.015133
0.00395958
0.000705352
0.0230329
0.023034
0.0227981
0.0228152
0.0231485
0.0238899
0.0258364
0.026634
0.0251625
0.0148324
0.00384702
0.000683698
0.0230326
0.0230298
0.0226962
0.0226977
0.0230539
0.0238221
0.0258449
0.026745
0.0253206
0.015138
0.0039663
0.00069896
0.0230188
0.0230272
0.0225717
0.0223607
0.0226896
0.0234414
0.025617
0.0267786
0.0256145
0.0173701
0.00500445
0.000882477
0.0229959
0.0229107
0.0212199
0.0197059
0.0202914
0.0218805
0.0240051
0.0244248
0.0229834
0.0135373
0.00345844
0.000581221
0.0229707
0.0227023
0.0208477
0.0203697
0.0209595
0.0224731
0.0242363
0.0245238
0.0228112
0.0128949
0.00338879
0.000628616
0.022969
0.0226996
0.0210852
0.020744
0.0212599
0.0226269
0.0242093
0.0244392
0.022709
0.0127496
0.00340453
0.000652117
0.0229685
0.0226943
0.0212257
0.0209427
0.0214203
0.0226989
0.0241574
0.0243682
0.0227067
0.0129218
0.00348966
0.000675787
0.0229681
0.0226897
0.0212853
0.0210176
0.0214725
0.0226968
0.024102
0.0243147
0.0227014
0.0130474
0.00355181
0.000691803
0.022968
0.022689
0.0213124
0.0210447
0.0214885
0.0226867
0.0240704
0.0242857
0.0226951
0.0131037
0.00357967
0.000698845
0.022968
0.022689
0.0213124
0.0210447
0.0214885
0.0226867
0.0240703
0.0242856
0.0226951
0.0131039
0.00357976
0.000698871
0.0229681
0.0226897
0.0212852
0.0210175
0.0214724
0.0226967
0.0241018
0.0243145
0.0227014
0.0130479
0.00355206
0.000691875
0.0229685
0.0226943
0.0212257
0.0209425
0.0214201
0.0226988
0.0241572
0.024368
0.0227067
0.0129225
0.00349004
0.000675898
0.022969
0.0226997
0.0210852
0.0207438
0.0212596
0.0226267
0.0242091
0.0244389
0.0227091
0.0127506
0.00340505
0.000652265
0.0229707
0.0227023
0.0208478
0.0203695
0.0209593
0.0224729
0.024236
0.0245236
0.0228114
0.0128963
0.00338948
0.000628805
0.0229959
0.0229108
0.0212201
0.0197058
0.0202912
0.0218803
0.0240048
0.0244245
0.0229833
0.0135383
0.00345908
0.00058141
0.0227323
0.0217723
0.0161
0.013378
0.0146275
0.0183531
0.0220771
0.0225951
0.0197564
0.00880209
0.00210669
0.000359218
0.0224604
0.0203028
0.0147403
0.0144014
0.0160179
0.0197765
0.0225542
0.0230203
0.0209919
0.0107783
0.00283969
0.000552191
0.0223895
0.0200717
0.0150882
0.0150289
0.0166307
0.0201117
0.0225768
0.0229633
0.0209477
0.0109007
0.00295638
0.000599257
0.0223729
0.0198856
0.0153825
0.0154086
0.0170044
0.020249
0.0225192
0.0228465
0.0208257
0.0109302
0.00301527
0.000621412
0.0223653
0.0197814
0.0155352
0.0155959
0.0171587
0.0202648
0.0224562
0.0227683
0.020766
0.0109823
0.00305972
0.000635468
0.0223632
0.0197508
0.0156052
0.0156727
0.0172088
0.0202562
0.0224186
0.0227273
0.0207375
0.0110091
0.00308023
0.000641666
0.0223632
0.0197508
0.0156051
0.0156726
0.0172087
0.0202561
0.0224185
0.0227272
0.0207374
0.0110092
0.00308028
0.000641681
0.0223653
0.0197814
0.0155351
0.0155957
0.0171584
0.0202645
0.0224559
0.0227681
0.0207659
0.0109825
0.00305986
0.00063551
0.0223729
0.0198857
0.0153824
0.0154084
0.017004
0.0202486
0.0225189
0.0228462
0.0208255
0.0109306
0.0030155
0.000621479
0.0223895
0.0200717
0.0150881
0.0150286
0.0166302
0.0201112
0.0225764
0.022963
0.0209476
0.0109013
0.00295672
0.000599353
0.0224604
0.0203028
0.0147404
0.0144013
0.0160176
0.0197761
0.0225538
0.02302
0.0209919
0.0107792
0.00284018
0.000552326
0.0227323
0.0217723
0.0161004
0.013378
0.0146273
0.0183527
0.0220768
0.022595
0.0197567
0.00880308
0.00210716
0.000359346
0.00639908
0.00667663
0.00797931
0.00977826
0.0121714
0.0166595
0.0207327
0.0212175
0.017426
0.00659546
0.00154294
0.000262243
0.00734839
0.00746113
0.00784819
0.00967333
0.0133442
0.0177282
0.021154
0.0217049
0.0190726
0.00882425
0.00235689
0.000469179
0.00768094
0.00782978
0.00815077
0.00991414
0.013769
0.0180568
0.0211873
0.0215857
0.0188967
0.00890265
0.00247489
0.000519776
0.0076234
0.00788908
0.00834876
0.0102744
0.0141511
0.0182588
0.0211221
0.0213906
0.0186187
0.00882668
0.00250838
0.000538621
0.00751021
0.00788189
0.00846727
0.0105274
0.0143254
0.0183105
0.0210482
0.0212719
0.0184929
0.00882704
0.00253725
0.000549976
0.00745862
0.00788084
0.00852533
0.010647
0.0143976
0.0183217
0.0210063
0.0212144
0.0184406
0.00883453
0.0025517
0.000555077
0.00745861
0.00788083
0.00852531
0.010647
0.0143976
0.0183216
0.0210062
0.0212143
0.0184405
0.00883455
0.00255172
0.000555083
0.00751019
0.00788186
0.00846724
0.0105273
0.0143253
0.0183103
0.0210479
0.0212716
0.0184926
0.00882706
0.00253731
0.000549994
0.00762336
0.00788905
0.00834873
0.0102743
0.0141509
0.0182586
0.0211217
0.0213902
0.0186183
0.00882674
0.00250848
0.000538653
0.00768088
0.00782976
0.00815076
0.00991412
0.0137688
0.0180565
0.021187
0.0215853
0.0188964
0.00890286
0.00247507
0.00051983
0.00734829
0.00746119
0.00784828
0.00967341
0.0133441
0.0177278
0.0211537
0.0217046
0.0190725
0.00882484
0.00235722
0.000469271
0.00639907
0.00667686
0.00797938
0.00977845
0.0121714
0.0166592
0.0207324
0.0212174
0.0174268
0.00659659
0.00154336
0.000262347
0.00128457
0.00374417
0.00782793
0.010768
0.0126867
0.0167277
0.0201375
0.0202968
0.0156921
0.00536631
0.00120339
0.000195551
0.00203142
0.00404713
0.00644605
0.00951269
0.0131784
0.0173728
0.0204214
0.0204974
0.0166656
0.00688094
0.00184391
0.00036647
0.00240929
0.0042086
0.00621525
0.00931095
0.013318
0.0175535
0.0202442
0.0201366
0.0162031
0.00689361
0.00193711
0.000413652
0.00246628
0.00428685
0.00623838
0.00938609
0.0134953
0.0176309
0.0200146
0.0197793
0.0157721
0.00680553
0.00195715
0.000430499
0.00245895
0.00433217
0.00630131
0.00946621
0.0135692
0.0176084
0.0198593
0.0195829
0.0155906
0.00679351
0.00197656
0.000439952
0.00245308
0.00435715
0.00634326
0.00951545
0.0136015
0.0175888
0.0197847
0.0194959
0.0155224
0.00679635
0.00198714
0.000444174
0.00245308
0.00435715
0.00634325
0.00951543
0.0136015
0.0175888
0.0197846
0.0194958
0.0155223
0.00679633
0.00198714
0.000444175
0.00245894
0.00433215
0.00630127
0.00946615
0.0135691
0.0176082
0.0198589
0.0195825
0.0155902
0.00679343
0.00197656
0.000439954
0.00246628
0.00428682
0.00623832
0.00938601
0.0134952
0.0176306
0.0200141
0.0197787
0.0157716
0.00680545
0.00195717
0.000430507
0.00240929
0.0042086
0.0062152
0.0093109
0.013318
0.0175534
0.0202437
0.020136
0.0162025
0.0068936
0.00193717
0.000413675
0.00203145
0.00404722
0.00644601
0.0095127
0.0131784
0.0173726
0.020421
0.020497
0.0166655
0.00688125
0.00184409
0.000366525
0.00128471
0.00374453
0.00782776
0.0107681
0.0126868
0.0167275
0.0201373
0.0202969
0.0156933
0.00536733
0.00120375
0.000195632
0.000952888
0.00392472
0.00869669
0.0125538
0.0141969
0.0172872
0.0199608
0.0196871
0.0137123
0.00420203
0.00086039
0.000129569
0.00115892
0.00337569
0.00638358
0.0101516
0.013902
0.0176486
0.0197076
0.0190126
0.013558
0.00513161
0.00132144
0.000260451
0.0012875
0.00332042
0.00586574
0.0095037
0.0136567
0.017442
0.0191108
0.0182116
0.012901
0.00511473
0.00140193
0.000304746
0.00132516
0.00333091
0.00574953
0.0093189
0.0135311
0.0172155
0.0186302
0.0176369
0.0124413
0.00504349
0.00142193
0.000321442
0.00133903
0.00335725
0.00574308
0.00925685
0.0134386
0.017039
0.0183616
0.0173529
0.0122597
0.00503333
0.00143827
0.000329984
0.00134534
0.00337609
0.00575709
0.00924496
0.0133993
0.0169541
0.0182439
0.0172364
0.0121973
0.0050368
0.00144709
0.000333643
0.00134534
0.00337608
0.00575706
0.00924492
0.0133992
0.016954
0.0182438
0.0172362
0.0121971
0.00503676
0.00144708
0.000333641
0.00133902
0.00335721
0.00574301
0.00925672
0.0134385
0.0170388
0.0183612
0.0173524
0.0122592
0.0050332
0.00143824
0.00032998
0.00132514
0.00333086
0.00574941
0.0093187
0.0135308
0.0172151
0.0186295
0.0176361
0.0124407
0.00504332
0.00142191
0.000321439
0.0012875
0.00332038
0.0058656
0.00950348
0.0136565
0.0174416
0.0191101
0.0182107
0.0129003
0.0051146
0.00140193
0.000304753
0.00115896
0.00337572
0.00638344
0.0101514
0.0139019
0.0176484
0.0197071
0.019012
0.0135577
0.00513173
0.00132153
0.000260483
0.00095305
0.00392508
0.0086965
0.0125536
0.0141971
0.0172872
0.0199607
0.0196872
0.0137134
0.00420282
0.000860647
0.000129623
0.000696334
0.0034932
0.00888508
0.0134951
0.0159008
0.0183891
0.0198105
0.0187535
0.0107678
0.00283834
0.000518454
7.20432e-05
0.000929462
0.00310008
0.00632731
0.0104148
0.014407
0.0176023
0.0185378
0.0167924
0.010096
0.00351844
0.000869839
0.000170958
0.00099126
0.00297776
0.00565692
0.00941512
0.0135497
0.0167518
0.0173724
0.015519
0.00947263
0.0035348
0.000952964
0.000212212
0.00101309
0.00294443
0.00543657
0.00899727
0.0130409
0.0160858
0.0166267
0.0147888
0.00910694
0.00350345
0.000979069
0.000228897
0.00102563
0.0029481
0.00537308
0.00882549
0.0127633
0.0157181
0.0162567
0.0144617
0.00897394
0.00350625
0.000995151
0.000236849
0.00103212
0.00295695
0.00536134
0.0087677
0.0126495
0.015564
0.0161055
0.0143371
0.00893373
0.00351377
0.00100307
0.000240085
0.00103212
0.00295693
0.0053613
0.00876763
0.0126494
0.0155638
0.0161053
0.0143369
0.0089336
0.00351372
0.00100306
0.000240083
0.00102562
0.00294805
0.00537296
0.00882527
0.0127629
0.0157176
0.0162561
0.0144611
0.00897353
0.00350612
0.000995122
0.000236844
0.00101307
0.00294434
0.00543638
0.00899692
0.0130404
0.0160851
0.0166259
0.0147879
0.00910634
0.00350327
0.000979034
0.000228891
0.000991244
0.00297767
0.00565668
0.00941467
0.0135491
0.016751
0.0173714
0.0155179
0.00947196
0.00353465
0.000952948
0.000212213
0.000929482
0.00310007
0.00632706
0.0104143
0.0144065
0.0176018
0.018537
0.0167916
0.0100956
0.00351847
0.000869892
0.000170976
0.000696511
0.00349363
0.00888491
0.0134946
0.0159008
0.018389
0.0198104
0.0187535
0.0107687
0.00283887
0.00051861
7.20734e-05
0.000515519
0.00294027
0.0083265
0.0138414
0.0167683
0.0187459
0.0192883
0.0166232
0.00688332
0.00156125
0.000256889
3.36109e-05
0.000780756
0.00273135
0.00584759
0.00996206
0.0139264
0.0165987
0.0165116
0.0134442
0.00679597
0.0022157
0.000530231
0.000104133
0.000839641
0.00263231
0.00516308
0.0086878
0.0124409
0.0148545
0.014781
0.0120323
0.00646417
0.00230481
0.000615448
0.000140649
0.000856991
0.00259037
0.004907
0.00814446
0.0116415
0.013902
0.0138847
0.0113501
0.00625852
0.0023165
0.000646126
0.000156531
0.00086651
0.00258344
0.00481925
0.00792143
0.0112748
0.0134687
0.0134818
0.0110698
0.00619015
0.00233196
0.000661941
0.000163822
0.000871407
0.00258612
0.00479552
0.00784413
0.0111351
0.0132996
0.0133277
0.0109709
0.00617379
0.00234244
0.000668981
0.000166659
0.0008714
0.0025861
0.00479547
0.00784403
0.011135
0.0132994
0.0133275
0.0109707
0.00617368
0.00234241
0.000668972
0.000166657
0.000866491
0.00258337
0.0048191
0.00792114
0.0112744
0.0134681
0.0134812
0.0110692
0.00618984
0.00233185
0.000661915
0.000163816
0.000856963
0.00259027
0.00490675
0.00814399
0.0116407
0.013901
0.0138837
0.0113492
0.00625806
0.00231636
0.000646095
0.000156525
0.000839617
0.00263219
0.00516276
0.00868717
0.0124399
0.0148532
0.0147797
0.0120312
0.00646366
0.00230469
0.00061543
0.000140648
0.000780764
0.00273132
0.00584729
0.00996134
0.0139255
0.0165975
0.0165104
0.0134432
0.00679567
0.00221571
0.000530261
0.000104144
0.000515641
0.00294066
0.00832648
0.0138407
0.0167678
0.0187456
0.019288
0.0166232
0.00688393
0.00156155
0.000256968
3.3625e-05
0.000332195
0.00207007
0.00671936
0.0131391
0.0165758
0.0183618
0.01772
0.011429
0.00351491
0.000701688
0.000107015
1.36767e-05
0.000611991
0.00220735
0.00494045
0.0087389
0.0122376
0.014136
0.0133889
0.00944069
0.00422716
0.00128745
0.000300651
5.91051e-05
0.00067993
0.00218799
0.00439055
0.00743562
0.0104613
0.0121212
0.0115688
0.00850721
0.00418947
0.00142349
0.000379375
8.89868e-05
0.000700569
0.00216607
0.00416732
0.00689928
0.00965399
0.0111855
0.0107506
0.00805396
0.00411845
0.00146331
0.000410649
0.000103075
0.000709899
0.00216163
0.00408617
0.00668399
0.00930774
0.0107825
0.010407
0.00787423
0.00410014
0.00148591
0.000425412
0.000109499
0.000714097
0.00216323
0.00406271
0.00661041
0.0091809
0.0106334
0.0102825
0.00781492
0.00410033
0.00149721
0.000431476
0.000111931
0.00071409
0.00216321
0.00406265
0.00661031
0.00918074
0.0106332
0.0102823
0.00781477
0.00410025
0.00149718
0.000431469
0.00011193
0.000709878
0.00216155
0.00408601
0.00668369
0.00930727
0.0107819
0.0104064
0.00787377
0.00409992
0.00148583
0.000425393
0.000109495
0.000700539
0.00216596
0.00416706
0.00689878
0.00965323
0.0111846
0.0107497
0.00805325
0.00411812
0.00146321
0.000410626
0.00010307
0.000679903
0.00218787
0.00439023
0.00743495
0.0104603
0.01212
0.0115676
0.00850635
0.00418913
0.00142341
0.000379362
8.89856e-05
0.000611991
0.00220732
0.00494017
0.00873809
0.0122363
0.0141345
0.0133876
0.00943989
0.00422699
0.00128747
0.00030067
5.91117e-05
0.000332277
0.00207044
0.00671961
0.0131383
0.0165751
0.0183612
0.0177195
0.011429
0.00351526
0.000701834
0.00010705
1.36825e-05
0.000195603
0.00123362
0.00446847
0.0105417
0.014625
0.0161917
0.0129941
0.00576173
0.00146599
0.000265583
3.93575e-05
5.13774e-06
0.000444122
0.001635
0.00378528
0.00695202
0.00967995
0.0109629
0.00961295
0.00593298
0.00240612
0.000692996
0.000159719
3.14141e-05
0.000518676
0.00170315
0.00347759
0.00592021
0.00814599
0.00921737
0.00835362
0.00561171
0.00255316
0.000834494
0.000224266
5.38174e-05
0.000543923
0.00171252
0.00333245
0.00549714
0.00749484
0.00846891
0.00778476
0.00539627
0.00257222
0.000885149
0.000252412
6.53997e-05
0.000554406
0.00171739
0.0032772
0.00532898
0.00722603
0.00815909
0.00755004
0.00531069
0.002586
0.000909481
0.000265309
7.07679e-05
0.000558588
0.00172095
0.00326131
0.0052727
0.00713106
0.00804861
0.00746806
0.00528508
0.00259553
0.000920006
0.000270344
7.27776e-05
0.000558581
0.00172093
0.00326126
0.00527261
0.00713092
0.00804845
0.0074679
0.00528496
0.00259548
0.000919988
0.000270339
7.27764e-05
0.000554387
0.00171732
0.00327705
0.00532871
0.00722561
0.00815859
0.00754957
0.00531036
0.00258585
0.000909431
0.000265296
7.07649e-05
0.000543896
0.00171242
0.00333221
0.00549668
0.00749416
0.00846811
0.00778403
0.00539577
0.002572
0.000885085
0.000252396
6.53966e-05
0.000518651
0.00170305
0.00347731
0.00591961
0.00814507
0.0092163
0.00835267
0.00561113
0.00255295
0.000834445
0.000224258
5.38167e-05
0.000444121
0.00163499
0.00378509
0.00695132
0.0096788
0.0109615
0.00961189
0.00593251
0.00240605
0.000693013
0.000159732
3.14181e-05
0.000195666
0.00123396
0.00446901
0.0105411
0.014624
0.0161908
0.0129934
0.00576185
0.00146618
0.000265645
3.93708e-05
5.13993e-06
9.36296e-05
0.000594749
0.00230877
0.00639237
0.00933878
0.0102506
0.00647075
0.00230728
0.000513038
8.96602e-05
1.36031e-05
1.87833e-06
0.000299325
0.00111462
0.00262429
0.00494148
0.0067981
0.00754839
0.00607266
0.00336135
0.00125615
0.000349215
7.99717e-05
1.56898e-05
0.000372343
0.00124359
0.00256797
0.00438162
0.00588392
0.00651737
0.00557855
0.00343885
0.00146019
0.000467348
0.000127587
3.10936e-05
0.000399883
0.00128016
0.00251147
0.0041255
0.00547263
0.0060485
0.00528969
0.00339845
0.00152164
0.000515518
0.000150478
3.99275e-05
0.000411242
0.00129473
0.00248782
0.00402126
0.00530172
0.00585274
0.00516567
0.00338099
0.00155015
0.00053761
0.00016102
4.41536e-05
0.000415518
0.00130092
0.00248172
0.00398706
0.00524269
0.00578425
0.00512347
0.00337832
0.00156301
0.000546466
0.000165033
4.57388e-05
0.000415512
0.0013009
0.00248168
0.00398698
0.00524258
0.00578412
0.00512336
0.00337824
0.00156298
0.000546455
0.00016503
4.57381e-05
0.000411226
0.00129467
0.00248769
0.00402103
0.00530139
0.00585236
0.00516533
0.00338077
0.00155005
0.000537581
0.000161012
4.41517e-05
0.000399861
0.00128008
0.00251128
0.00412514
0.00547211
0.00604789
0.00528916
0.00339813
0.00152151
0.000515481
0.000150469
3.99257e-05
0.000372324
0.00124351
0.00256777
0.00438116
0.00588322
0.00651657
0.0055779
0.0034385
0.00146007
0.000467323
0.000127584
3.10934e-05
0.000299322
0.00111462
0.0026242
0.00494103
0.00679729
0.00754743
0.00607204
0.00336114
0.00125614
0.000349231
7.99799e-05
1.56923e-05
9.36552e-05
0.000594929
0.00230929
0.00639241
0.00933807
0.0102497
0.00647054
0.00230741
0.000513123
8.96839e-05
1.36079e-05
1.87914e-06
4.81736e-05
0.000280367
0.00102335
0.0029607
0.00446159
0.00470038
0.0024848
0.000771458
0.000161229
2.89241e-05
4.65054e-06
6.86895e-07
0.000190482
0.000711212
0.00166437
0.00314511
0.00424372
0.00458517
0.00341529
0.00173037
0.000609724
0.000166213
3.78124e-05
7.3802e-06
0.000252216
0.000854198
0.00177074
0.00301251
0.00394363
0.00426445
0.00343238
0.00195602
0.000789188
0.000251834
6.98695e-05
1.71127e-05
0.000278451
0.000905089
0.0017833
0.00291192
0.00375927
0.00405668
0.00335645
0.00200624
0.000856908
0.000290884
8.69964e-05
2.33683e-05
0.00028961
0.000925825
0.00178608
0.00286689
0.00367701
0.00396324
0.0033172
0.00202587
0.00088717
0.000308795
9.50883e-05
2.6489e-05
0.000293741
0.000933804
0.00178835
0.00285258
0.00364889
0.00393067
0.00330446
0.00203499
0.000899418
0.000315718
9.81511e-05
2.76723e-05
0.000293737
0.000933788
0.00178832
0.00285252
0.00364881
0.00393058
0.00330439
0.00203495
0.000899399
0.000315711
9.81494e-05
2.76719e-05
0.000289598
0.00092578
0.00178599
0.00286672
0.00367677
0.00396298
0.00331697
0.00202573
0.000887116
0.000308778
9.50839e-05
2.64879e-05
0.000278434
0.000905027
0.00178315
0.00291166
0.00375891
0.00405627
0.00335611
0.00200605
0.000856838
0.000290864
8.69917e-05
2.33674e-05
0.000252202
0.000854144
0.0017706
0.00301221
0.00394318
0.00426394
0.003432
0.00195583
0.000789133
0.000251823
6.98684e-05
1.71128e-05
0.000190479
0.00071121
0.00166435
0.00314491
0.00424331
0.00458468
0.00341501
0.0017303
0.000609735
0.000166225
3.78176e-05
7.38161e-06
4.81839e-05
0.000280456
0.00102364
0.00296106
0.00446159
0.00470018
0.00248484
0.000771533
0.000161263
2.89326e-05
4.65228e-06
6.87197e-07
2.31539e-05
0.000124996
0.000405553
0.00110716
0.00170173
0.00168513
0.000784214
0.000231078
4.92067e-05
9.36342e-06
1.60378e-06
2.5131e-07
0.000113706
0.000426459
0.00097847
0.0018151
0.00239127
0.00249612
0.00173742
0.000821043
0.000278647
7.49111e-05
1.68732e-05
3.27814e-06
0.000161587
0.000553337
0.00114256
0.00192341
0.00245431
0.00257518
0.00194723
0.00103832
0.000407308
0.000131084
3.66935e-05
8.93685e-06
0.000183977
0.00060569
0.00119214
0.00192706
0.00242401
0.00254163
0.00198343
0.00111329
0.000463463
0.000159633
4.85887e-05
1.30449e-05
0.000193899
0.000628022
0.00121093
0.00192394
0.00240416
0.00251917
0.00199285
0.00114474
0.000488877
0.00017303
5.44301e-05
1.51964e-05
0.000197589
0.000636445
0.00121835
0.00192364
0.00239751
0.00251128
0.00199688
0.00115719
0.000498743
0.000178146
5.66552e-05
1.60257e-05
0.000197586
0.000636433
0.00121833
0.0019236
0.00239745
0.00251122
0.00199683
0.00115716
0.000498733
0.000178143
5.66543e-05
1.60255e-05
0.000193891
0.000627991
0.00121086
0.00192382
0.002404
0.002519
0.00199272
0.00114467
0.000488849
0.000173021
5.44278e-05
1.51959e-05
0.000183966
0.000605647
0.00119205
0.00192689
0.00242378
0.00254138
0.00198324
0.00111319
0.000463428
0.000159623
4.85865e-05
1.30444e-05
0.000161578
0.000553302
0.00114248
0.00192324
0.00245406
0.00257489
0.00194703
0.00103823
0.000407286
0.00013108
3.66935e-05
8.93707e-06
0.000113703
0.000426457
0.000978472
0.00181505
0.00239113
0.00249593
0.00173734
0.000821038
0.000278661
7.49197e-05
1.68763e-05
3.27889e-06
2.3158e-05
0.000125032
0.000405689
0.0011074
0.0017019
0.00168517
0.000784274
0.000231112
4.92183e-05
9.36644e-06
1.60442e-06
2.51426e-07
1.12126e-05
5.57397e-05
0.000154419
0.00036355
0.000547273
0.000502947
0.000223131
6.71104e-05
1.52465e-05
3.07337e-06
5.54217e-07
9.09523e-08
6.41867e-05
0.000242022
0.000540047
0.00096471
0.00123989
0.00123655
0.000810456
0.000363742
0.000120438
3.18921e-05
7.10923e-06
1.38049e-06
9.83422e-05
0.000339372
0.000692209
0.00114038
0.00142057
0.00143397
0.00102243
0.00052009
0.000202525
6.57826e-05
1.83655e-05
4.41412e-06
0.000115783
0.000384652
0.000750877
0.00119177
0.00146373
0.00148047
0.00109237
0.000585876
0.000242869
8.51062e-05
2.60397e-05
6.91095e-06
0.000123849
0.00040495
0.000775261
0.00121047
0.00147713
0.00149477
0.00111971
0.000614914
0.000261668
9.45059e-05
2.99916e-05
8.28951e-06
0.000126886
0.000412635
0.000784516
0.0012176
0.0014821
0.00149988
0.00112995
0.000626045
0.000268875
9.81058e-05
3.15182e-05
8.83128e-06
0.000126884
0.000412627
0.0007845
0.00121757
0.00148207
0.00149985
0.00112993
0.000626031
0.00026887
9.81041e-05
3.15177e-05
8.83116e-06
0.000123843
0.00040493
0.000775218
0.0012104
0.00147704
0.00149467
0.00111963
0.000614877
0.000261654
9.45017e-05
2.99905e-05
8.28923e-06
0.000115776
0.000384626
0.000750819
0.00119167
0.00146359
0.00148033
0.00109227
0.000585829
0.000242853
8.51021e-05
2.60387e-05
6.91078e-06
9.83362e-05
0.000339351
0.000692163
0.00114029
0.00142044
0.00143383
0.00102235
0.000520056
0.000202517
6.57821e-05
1.83658e-05
4.41431e-06
6.41843e-05
0.000242019
0.000540053
0.000964708
0.00123986
0.0012365
0.000810446
0.000363754
0.000120449
3.18973e-05
7.11084e-06
1.38086e-06
1.12136e-05
5.57528e-05
0.00015447
0.000363658
0.00054738
0.000503002
0.000223162
6.71232e-05
1.52507e-05
3.07447e-06
5.54458e-07
9.09965e-08
5.16352e-06
2.4498e-05
5.93844e-05
0.000116716
0.000163013
0.00013918
6.24949e-05
1.98153e-05
4.79458e-06
1.00921e-06
1.8941e-07
3.22465e-08
3.40696e-05
0.000129731
0.000281216
0.000477198
0.000597088
0.000563596
0.000350459
0.00015156
4.91157e-05
1.28037e-05
2.83822e-06
5.5376e-07
5.70298e-05
0.000197944
0.000395977
0.000629646
0.000766625
0.000738556
0.000502189
0.00024914
9.7258e-05
3.16027e-05
8.70734e-06
2.05893e-06
6.9686e-05
0.000232871
0.00044748
0.000688991
0.000827835
0.000801957
0.00056536
0.00029625
0.000123811
4.37924e-05
1.32879e-05
3.46223e-06
7.57775e-05
0.000249275
0.000470359
0.000713675
0.000852263
0.000827323
0.000592616
0.000318013
0.000136655
4.9998e-05
1.57768e-05
4.28042e-06
7.81082e-05
0.000255567
0.000479061
0.000722909
0.00086125
0.000836578
0.000602822
0.000326321
0.000141592
5.24028e-05
1.6756e-05
4.60878e-06
7.8107e-05
0.000255562
0.000479051
0.000722894
0.000861231
0.00083656
0.000602809
0.000326315
0.000141589
5.2402e-05
1.67558e-05
4.60872e-06
7.57742e-05
0.000249263
0.000470334
0.000713634
0.000852211
0.000827271
0.000592581
0.000317996
0.000136648
4.99961e-05
1.57762e-05
4.28029e-06
6.96816e-05
0.000232855
0.000447448
0.000688936
0.000827767
0.000801888
0.000565315
0.00029623
0.000123805
4.37907e-05
1.32876e-05
3.46218e-06
5.70262e-05
0.000197932
0.000395953
0.000629604
0.00076657
0.000738499
0.000502157
0.000249129
9.72565e-05
3.16032e-05
8.70771e-06
2.05906e-06
3.40679e-05
0.000129728
0.00028122
0.000477207
0.000597094
0.000563598
0.000350469
0.000151571
4.91227e-05
1.28064e-05
2.83899e-06
5.53928e-07
5.16372e-06
2.45022e-05
5.94006e-05
0.000116752
0.000163054
0.000139205
6.25069e-05
1.98199e-05
4.79608e-06
1.00961e-06
1.895e-07
3.2263e-08
2.29011e-06
1.04713e-05
2.30008e-05
3.8616e-05
4.88272e-05
3.89329e-05
1.79331e-05
5.93565e-06
1.5015e-06
3.27074e-07
6.3472e-08
1.11435e-08
1.70073e-05
6.55468e-05
0.000138263
0.000221258
0.000267616
0.000238401
0.000141511
5.93706e-05
1.8844e-05
4.86261e-06
1.0796e-06
2.12536e-07
3.15462e-05
0.000110207
0.00021552
0.00032745
0.000387425
0.000356319
0.000234389
0.000115036
4.48583e-05
1.44098e-05
3.89695e-06
9.07318e-07
4.01973e-05
0.000135057
0.000254274
0.000376121
0.00044
0.000408475
0.000279248
0.000145361
6.11658e-05
2.154e-05
6.41663e-06
1.63769e-06
4.45228e-05
0.000147233
0.000272452
0.000397953
0.000463061
0.000431439
0.000299866
0.000159996
6.94154e-05
2.53686e-05
7.86602e-06
2.08724e-06
4.62053e-05
0.000151977
0.000279457
0.000406208
0.000471677
0.000439989
0.000307671
0.000165622
7.26221e-05
2.6878e-05
8.44824e-06
2.27156e-06
4.62046e-05
0.000151975
0.000279452
0.0004062
0.000471667
0.00043998
0.000307665
0.000165619
7.2621e-05
2.68776e-05
8.44814e-06
2.27153e-06
4.45209e-05
0.000147226
0.000272439
0.000397932
0.000463036
0.000431415
0.000299851
0.000159988
6.94128e-05
2.53678e-05
7.8658e-06
2.08719e-06
4.01948e-05
0.000135048
0.000254257
0.000376095
0.000439968
0.000408445
0.00027923
0.000145354
6.11635e-05
2.15395e-05
6.41655e-06
1.63768e-06
3.15441e-05
0.0001102
0.000215509
0.000327433
0.000387404
0.0003563
0.00023438
0.000115034
4.48587e-05
1.44104e-05
3.89721e-06
9.07397e-07
1.70061e-05
6.55442e-05
0.000138264
0.000221265
0.000267626
0.000238411
0.000141522
5.93781e-05
1.88477e-05
4.86388e-06
1.07993e-06
2.12605e-07
2.2901e-06
1.04724e-05
2.30056e-05
3.86267e-05
4.88402e-05
3.89416e-05
1.79373e-05
5.93734e-06
1.50204e-06
3.2722e-07
6.3504e-08
1.11494e-08
9.62549e-07
4.2716e-06
8.68139e-06
1.29294e-05
1.4934e-05
1.11895e-05
5.20868e-06
1.76733e-06
4.6256e-07
1.03962e-07
2.07777e-08
3.74544e-09
8.00308e-06
3.11285e-05
6.40571e-05
9.62222e-05
0.000111866
9.39957e-05
5.34324e-05
2.18169e-05
6.82376e-06
1.75892e-06
3.93433e-07
7.83199e-08
1.6608e-05
5.86046e-05
0.000112295
0.000162314
0.000185625
0.000163633
0.000105094
5.10553e-05
1.96766e-05
6.20027e-06
1.64601e-06
3.7844e-07
2.2193e-05
7.52e-05
0.000138846
0.000196401
0.000222601
0.00019898
0.000133399
6.91987e-05
2.8989e-05
1.00381e-05
2.92308e-06
7.31723e-07
2.50948e-05
8.36593e-05
0.000151884
0.000212579
0.000239882
0.000215556
0.000147092
7.83737e-05
3.3956e-05
1.22231e-05
3.70112e-06
9.6089e-07
2.6242e-05
8.70094e-05
0.000156989
0.000218798
0.000246458
0.000221849
0.000152352
8.19477e-05
3.59189e-05
1.31021e-05
4.0205e-06
1.05686e-06
2.62416e-05
8.70079e-05
0.000156986
0.000218794
0.000246454
0.000221845
0.000152349
8.19465e-05
3.59184e-05
1.31019e-05
4.02045e-06
1.05685e-06
2.50938e-05
8.36555e-05
0.000151877
0.000212569
0.000239871
0.000215546
0.000147086
7.83709e-05
3.3955e-05
1.22228e-05
3.70104e-06
9.60871e-07
2.21915e-05
7.51952e-05
0.000138837
0.000196389
0.000222588
0.000198968
0.000133392
6.91962e-05
2.89883e-05
1.0038e-05
2.92307e-06
7.31727e-07
1.66068e-05
5.86008e-05
0.00011229
0.000162308
0.000185618
0.000163627
0.000105092
5.10556e-05
1.96773e-05
6.20068e-06
1.64615e-06
3.7848e-07
8.0024e-06
3.11267e-05
6.40571e-05
9.62263e-05
0.000111873
9.40034e-05
5.3439e-05
2.18208e-05
6.82544e-06
1.75945e-06
3.93565e-07
7.83468e-08
9.62499e-07
4.27168e-06
8.6827e-06
1.29324e-05
1.49378e-05
1.11923e-05
5.21014e-06
1.76792e-06
4.62747e-07
1.04012e-07
2.07887e-08
3.74747e-09
3.87046e-07
1.6586e-06
3.12947e-06
4.26298e-06
4.54578e-06
3.22429e-06
1.49978e-06
5.17855e-07
1.39781e-07
3.23495e-08
6.63432e-09
1.22307e-09
3.567e-06
1.39173e-05
2.77982e-05
3.92072e-05
4.35816e-05
3.45612e-05
1.8887e-05
7.55656e-06
2.35248e-06
6.10255e-07
1.37943e-07
2.77731e-08
8.29493e-06
2.96691e-05
5.59924e-05
7.7205e-05
8.5134e-05
7.21128e-05
4.52035e-05
2.1567e-05
8.14547e-06
2.515e-06
6.57596e-07
1.49782e-07
1.16854e-05
4.0118e-05
7.30109e-05
9.90009e-05
0.000108515
9.3749e-05
6.1725e-05
3.16528e-05
1.30371e-05
4.41018e-06
1.25627e-06
3.09364e-07
1.35198e-05
4.56607e-05
8.17241e-05
0.000109851
0.000120011
0.000104438
7.01339e-05
3.7036e-05
1.58061e-05
5.55601e-06
1.64187e-06
4.18193e-07
1.42566e-05
4.7891e-05
8.51906e-05
0.000114095