/*--------------------------------*- C++ -*----------------------------------*\
| =========                 |                                                 |
| \\      /  F ield         | OpenFOAM: The Open Source CFD Toolbox           |
|  \\    /   O peration     | Version:  2.3.1                                 |
|   \\  /    A nd           | Web:      www.OpenFOAM.org                      |
|    \\/     M anipulation  |                                                 |
\*---------------------------------------------------------------------------*/
FoamFile
{
    version     2.0;
    format      ascii;
    class       volScalarField;
    location    "10";
    object      epsilon_0;
}
// * * * * * * * * * * * * * * * * * * * * * * * * * * * * * * * * * * * * * //

dimensions      [0 2 -3 0 0 0 0];

internalField   nonuniform List<scalar> 
37530
(
9.49105e-07
9.55305e-07
9.62017e-07
9.69282e-07
9.77142e-07
9.85645e-07
9.94846e-07
1.0048e-06
1.01558e-06
1.02725e-06
1.03986e-06
1.05349e-06
1.06819e-06
1.08401e-06
1.101e-06
1.11916e-06
1.13846e-06
1.15877e-06
1.17992e-06
1.20151e-06
1.2226e-06
1.24145e-06
1.25568e-06
1.25874e-06
1.29634e-06
6.18368e-06
0.000120338
0.000280333
0.000289615
0.000270187
0.00028644
0.000293367
0.000259919
0.00022665
0.000222352
0.00022695
0.000239629
1.44994e-06
1.45902e-06
1.46885e-06
1.47948e-06
1.49098e-06
1.50342e-06
1.51688e-06
1.53144e-06
1.5472e-06
1.56424e-06
1.58265e-06
1.60253e-06
1.62395e-06
1.64697e-06
1.67166e-06
1.698e-06
1.72596e-06
1.75539e-06
1.78585e-06
1.8165e-06
1.84595e-06
1.87171e-06
1.88959e-06
1.89403e-06
1.87769e-06
2.03833e-06
1.05307e-05
5.47624e-05
7.73917e-05
8.56219e-05
8.84545e-05
0.000123989
0.000214388
0.000332199
0.000375417
0.000371387
0.000345826
1.67208e-06
1.68181e-06
1.69233e-06
1.70371e-06
1.71601e-06
1.72932e-06
1.74373e-06
1.75933e-06
1.77622e-06
1.79447e-06
1.8142e-06
1.8355e-06
1.85846e-06
1.88316e-06
1.90966e-06
1.93802e-06
1.96823e-06
2.00018e-06
2.03363e-06
2.0681e-06
2.10266e-06
2.13576e-06
2.16482e-06
2.18778e-06
2.20412e-06
2.20994e-06
2.48339e-06
4.93257e-06
8.99894e-06
1.16648e-05
1.3792e-05
1.72591e-05
2.41063e-05
4.58664e-05
8.73348e-05
0.000146665
0.00019017
1.75754e-06
1.7675e-06
1.77828e-06
1.78994e-06
1.80254e-06
1.81619e-06
1.83097e-06
1.84699e-06
1.86432e-06
1.88306e-06
1.90332e-06
1.92521e-06
1.94883e-06
1.97428e-06
2.00165e-06
2.03103e-06
2.06247e-06
2.09599e-06
2.13155e-06
2.16896e-06
2.20799e-06
2.24839e-06
2.29005e-06
2.33364e-06
2.3821e-06
2.445e-06
2.53061e-06
2.75889e-06
3.19179e-06
3.56051e-06
3.84925e-06
4.18328e-06
4.78289e-06
5.99729e-06
8.77723e-06
1.48428e-05
2.60029e-05
1.78516e-06
1.79519e-06
1.80605e-06
1.81779e-06
1.8305e-06
1.84427e-06
1.85918e-06
1.87533e-06
1.89281e-06
1.91173e-06
1.93219e-06
1.95431e-06
1.97821e-06
2.00401e-06
2.03182e-06
2.06176e-06
2.09396e-06
2.12853e-06
2.16555e-06
2.20507e-06
2.24705e-06
2.29143e-06
2.33817e-06
2.38746e-06
2.44008e-06
2.49897e-06
2.57059e-06
2.66481e-06
2.79019e-06
2.94514e-06
3.12035e-06
3.31069e-06
3.52452e-06
3.77766e-06
4.13714e-06
4.72405e-06
5.74827e-06
1.79239e-06
1.80244e-06
1.81332e-06
1.82509e-06
1.83784e-06
1.85165e-06
1.8666e-06
1.8828e-06
1.90033e-06
1.91931e-06
1.93985e-06
1.96208e-06
1.98614e-06
2.01214e-06
2.04024e-06
2.07057e-06
2.10333e-06
2.1387e-06
2.17689e-06
2.21812e-06
2.26266e-06
2.311e-06
2.36395e-06
2.42296e-06
2.4905e-06
2.57053e-06
2.66895e-06
2.79015e-06
2.94071e-06
3.11619e-06
3.30024e-06
3.4814e-06
3.66425e-06
3.86264e-06
4.1007e-06
4.39663e-06
4.7733e-06
1.79231e-06
1.80237e-06
1.81326e-06
1.82506e-06
1.83782e-06
1.85165e-06
1.86662e-06
1.88284e-06
1.90041e-06
1.91943e-06
1.94003e-06
1.96235e-06
1.98651e-06
2.01268e-06
2.041e-06
2.07168e-06
2.10492e-06
2.14098e-06
2.18013e-06
2.2227e-06
2.26908e-06
2.31978e-06
2.37541e-06
2.43686e-06
2.5053e-06
2.58238e-06
2.6703e-06
2.77164e-06
2.88851e-06
3.02218e-06
3.17354e-06
3.34382e-06
3.53465e-06
3.74868e-06
4.00049e-06
4.29668e-06
4.65404e-06
1.78492e-06
1.79498e-06
1.80589e-06
1.81769e-06
1.83046e-06
1.84429e-06
1.85926e-06
1.87548e-06
1.89305e-06
1.91209e-06
1.93273e-06
1.9551e-06
1.97935e-06
2.00562e-06
2.03412e-06
2.06507e-06
2.09871e-06
2.13533e-06
2.17526e-06
2.21889e-06
2.26671e-06
2.31937e-06
2.37779e-06
2.44326e-06
2.51748e-06
2.60267e-06
2.70129e-06
2.81565e-06
2.94742e-06
3.09617e-06
3.2596e-06
3.43651e-06
3.62845e-06
3.84247e-06
4.0951e-06
4.39543e-06
4.75513e-06
1.75718e-06
1.76719e-06
1.77804e-06
1.78979e-06
1.80249e-06
1.81624e-06
1.83112e-06
1.84725e-06
1.86472e-06
1.88366e-06
1.90421e-06
1.9265e-06
1.95067e-06
1.9769e-06
2.00539e-06
2.0364e-06
2.07019e-06
2.10707e-06
2.14741e-06
2.19165e-06
2.24033e-06
2.29412e-06
2.35382e-06
2.42039e-06
2.49493e-06
2.57877e-06
2.67339e-06
2.78034e-06
2.90113e-06
3.03718e-06
3.19013e-06
3.3623e-06
3.5557e-06
3.77351e-06
4.0305e-06
4.33323e-06
4.69378e-06
1.67172e-06
1.6815e-06
1.6921e-06
1.70357e-06
1.71598e-06
1.72941e-06
1.74396e-06
1.75971e-06
1.77679e-06
1.79531e-06
1.81542e-06
1.83725e-06
1.86094e-06
1.88667e-06
1.91467e-06
1.94518e-06
1.97849e-06
2.01492e-06
2.05485e-06
2.09875e-06
2.14719e-06
2.20085e-06
2.26059e-06
2.32746e-06
2.40272e-06
2.48779e-06
2.58419e-06
2.69336e-06
2.81652e-06
2.95465e-06
3.10854e-06
3.27957e-06
3.46968e-06
3.68225e-06
3.92599e-06
4.21583e-06
4.55842e-06
1.44972e-06
1.45884e-06
1.46873e-06
1.47944e-06
1.49104e-06
1.50359e-06
1.5172e-06
1.53194e-06
1.54792e-06
1.56526e-06
1.5841e-06
1.60457e-06
1.62681e-06
1.651e-06
1.67735e-06
1.70609e-06
1.73751e-06
1.77192e-06
1.80971e-06
1.85134e-06
1.89734e-06
1.94839e-06
2.00524e-06
2.06878e-06
2.14e-06
2.21997e-06
2.30983e-06
2.41077e-06
2.52401e-06
2.65089e-06
2.79294e-06
2.952e-06
3.13025e-06
3.32982e-06
3.55458e-06
3.80125e-06
4.10574e-06
9.49049e-07
9.55258e-07
9.61992e-07
9.6929e-07
9.77198e-07
9.8577e-07
9.95064e-07
1.00514e-06
1.01607e-06
1.02794e-06
1.04083e-06
1.05484e-06
1.07008e-06
1.08666e-06
1.10472e-06
1.12444e-06
1.14599e-06
1.16961e-06
1.19553e-06
1.22408e-06
1.25563e-06
1.29059e-06
1.32949e-06
1.37292e-06
1.42154e-06
1.4761e-06
1.53734e-06
1.60605e-06
1.68299e-06
1.76897e-06
1.86493e-06
1.97201e-06
2.09167e-06
2.22522e-06
2.37543e-06
2.53915e-06
2.73466e-06
9.40246e-07
9.436e-07
9.4723e-07
9.51158e-07
9.55406e-07
9.59998e-07
9.64967e-07
9.70342e-07
9.76159e-07
9.82451e-07
9.89253e-07
9.966e-07
1.00452e-06
1.01304e-06
1.02219e-06
1.03198e-06
1.04239e-06
1.05345e-06
1.06508e-06
1.07707e-06
1.08904e-06
1.10004e-06
1.10713e-06
1.10363e-06
1.07899e-06
1.65879e-06
2.89233e-05
0.000147925
0.000184185
0.00017836
0.000171793
0.000175039
0.000164242
0.000135538
0.000125432
0.000121524
0.000141853
8.70847e-07
8.72128e-07
8.73519e-07
8.75027e-07
8.76663e-07
8.78439e-07
8.80368e-07
8.82463e-07
8.8474e-07
8.87214e-07
8.89903e-07
8.92824e-07
8.95995e-07
8.99435e-07
9.03166e-07
9.07209e-07
9.11594e-07
9.16372e-07
9.21602e-07
9.2738e-07
9.3392e-07
9.41786e-07
9.5292e-07
9.76054e-07
1.03705e-06
1.28258e-06
4.85101e-06
4.09549e-05
9.3825e-05
0.000135853
0.000179419
0.000222471
0.000319172
0.000488331
0.000508292
0.000384969
0.000263311
8.93351e-07
8.94595e-07
8.95946e-07
8.97414e-07
8.99007e-07
9.00738e-07
9.0262e-07
9.04668e-07
9.06896e-07
9.0932e-07
9.11957e-07
9.14826e-07
9.17948e-07
9.21343e-07
9.25034e-07
9.29046e-07
9.33401e-07
9.38133e-07
9.4328e-07
9.48908e-07
9.5516e-07
9.62397e-07
9.71596e-07
9.87562e-07
1.02251e-06
1.1066e-06
1.3951e-06
3.93159e-06
1.01159e-05
1.31312e-05
1.47907e-05
2.28709e-05
3.88766e-05
6.67307e-05
9.80918e-05
0.000132027
0.000156731
9.00779e-07
9.02042e-07
9.03415e-07
9.04906e-07
9.06526e-07
9.08287e-07
9.10204e-07
9.1229e-07
9.14562e-07
9.17035e-07
9.19728e-07
9.2266e-07
9.25855e-07
9.29335e-07
9.33126e-07
9.37255e-07
9.41755e-07
9.46666e-07
9.5204e-07
9.57956e-07
9.64555e-07
9.72132e-07
9.81364e-07
9.93918e-07
1.0142e-06
1.05526e-06
1.14021e-06
1.32714e-06
1.69598e-06
1.9127e-06
2.15229e-06
2.45444e-06
2.97536e-06
4.42445e-06
7.31963e-06
1.19178e-05
1.85867e-05
9.0231e-07
9.03581e-07
9.04963e-07
9.06464e-07
9.08096e-07
9.09871e-07
9.11802e-07
9.13905e-07
9.16195e-07
9.18689e-07
9.21406e-07
9.24367e-07
9.27595e-07
9.31115e-07
9.34955e-07
9.39145e-07
9.43723e-07
9.48732e-07
9.5423e-07
9.60295e-07
9.67042e-07
9.74674e-07
9.83558e-07
9.94371e-07
1.00838e-06
1.02885e-06
1.06304e-06
1.11963e-06
1.21154e-06
1.3131e-06
1.38237e-06
1.44942e-06
1.53734e-06
1.66835e-06
1.8896e-06
2.27467e-06
2.86486e-06
9.02509e-07
9.03783e-07
9.05167e-07
9.06672e-07
9.08308e-07
9.10087e-07
9.12024e-07
9.14132e-07
9.16428e-07
9.18929e-07
9.21655e-07
9.24626e-07
9.27868e-07
9.31407e-07
9.35271e-07
9.39493e-07
9.44113e-07
9.4918e-07
9.54756e-07
9.60922e-07
9.67797e-07
9.75572e-07
9.84556e-07
9.9528e-07
1.00859e-06
1.0258e-06
1.04815e-06
1.07459e-06
1.0999e-06
1.12429e-06
1.15513e-06
1.19182e-06
1.2341e-06
1.28529e-06
1.35026e-06
1.43935e-06
1.55657e-06
9.02505e-07
9.0378e-07
9.05165e-07
9.06671e-07
9.08308e-07
9.10089e-07
9.12027e-07
9.14136e-07
9.16433e-07
9.18936e-07
9.21665e-07
9.24641e-07
9.2789e-07
9.31438e-07
9.35316e-07
9.39557e-07
9.44206e-07
9.49312e-07
9.54939e-07
9.61164e-07
9.68091e-07
9.75859e-07
9.84664e-07
9.94787e-07
1.00662e-06
1.02066e-06
1.03758e-06
1.05832e-06
1.08357e-06
1.11202e-06
1.14108e-06
1.17138e-06
1.20565e-06
1.24586e-06
1.29225e-06
1.34917e-06
1.41407e-06
9.023e-07
9.03573e-07
9.04957e-07
9.06462e-07
9.08097e-07
9.09875e-07
9.1181e-07
9.13916e-07
9.16211e-07
9.18711e-07
9.21437e-07
9.24413e-07
9.27661e-07
9.31209e-07
9.35089e-07
9.39338e-07
9.44e-07
9.49126e-07
9.54781e-07
9.61042e-07
9.68012e-07
9.75829e-07
9.84681e-07
9.94819e-07
1.00656e-06
1.02022e-06
1.03602e-06
1.05379e-06
1.07301e-06
1.09367e-06
1.11692e-06
1.14394e-06
1.17562e-06
1.2137e-06
1.25905e-06
1.31565e-06
1.38216e-06
9.00765e-07
9.0203e-07
9.03406e-07
9.04902e-07
9.06528e-07
9.08295e-07
9.10218e-07
9.1231e-07
9.14589e-07
9.17072e-07
9.19781e-07
9.22737e-07
9.25964e-07
9.2949e-07
9.33346e-07
9.37572e-07
9.42211e-07
9.47317e-07
9.52951e-07
9.59189e-07
9.66129e-07
9.73888e-07
9.82612e-07
9.92486e-07
1.00373e-06
1.01661e-06
1.03142e-06
1.04846e-06
1.06802e-06
1.09027e-06
1.11536e-06
1.14386e-06
1.17641e-06
1.21463e-06
1.25836e-06
1.31219e-06
1.37045e-06
8.93334e-07
8.94581e-07
8.95937e-07
8.97411e-07
8.99011e-07
9.00749e-07
9.0264e-07
9.04697e-07
9.06935e-07
9.09373e-07
9.12032e-07
9.14933e-07
9.18099e-07
9.21557e-07
9.25339e-07
9.29483e-07
9.34032e-07
9.39038e-07
9.44559e-07
9.5067e-07
9.57461e-07
9.65046e-07
9.73568e-07
9.83199e-07
9.94134e-07
1.00657e-06
1.02069e-06
1.03661e-06
1.05447e-06
1.07449e-06
1.09717e-06
1.12327e-06
1.15354e-06
1.18931e-06
1.23056e-06
1.28191e-06
1.33517e-06
8.70822e-07
8.72106e-07
8.73503e-07
8.75019e-07
8.76663e-07
8.78448e-07
8.80387e-07
8.82493e-07
8.84781e-07
8.87272e-07
8.89985e-07
8.9294e-07
8.9616e-07
8.99671e-07
9.03503e-07
9.07695e-07
9.12285e-07
9.17323e-07
9.22862e-07
9.28973e-07
9.35734e-07
9.43247e-07
9.51631e-07
9.61027e-07
9.71601e-07
9.83538e-07
9.97043e-07
1.01233e-06
1.02965e-06
1.04925e-06
1.07146e-06
1.09671e-06
1.1254e-06
1.15865e-06
1.19513e-06
1.24199e-06
1.28066e-06
9.40205e-07
9.4357e-07
9.47219e-07
9.51169e-07
9.55446e-07
9.60079e-07
9.65097e-07
9.70533e-07
9.76424e-07
9.82817e-07
9.89758e-07
9.97295e-07
1.00548e-06
1.01438e-06
1.02406e-06
1.03462e-06
1.04614e-06
1.05874e-06
1.07254e-06
1.08771e-06
1.10441e-06
1.12286e-06
1.14331e-06
1.16604e-06
1.19137e-06
1.21964e-06
1.25122e-06
1.2865e-06
1.32588e-06
1.36982e-06
1.41883e-06
1.47355e-06
1.53475e-06
1.60321e-06
1.67995e-06
1.76572e-06
1.86151e-06
1.13128e-06
1.13485e-06
1.13871e-06
1.14289e-06
1.14741e-06
1.1523e-06
1.15758e-06
1.1633e-06
1.16948e-06
1.17617e-06
1.18339e-06
1.19119e-06
1.1996e-06
1.20864e-06
1.21837e-06
1.2288e-06
1.23994e-06
1.25176e-06
1.26418e-06
1.27701e-06
1.28986e-06
1.30195e-06
1.31167e-06
1.31553e-06
1.30766e-06
1.37544e-06
7.86152e-06
0.000105737
0.00017445
0.000177099
0.000167726
0.000163266
0.000143607
0.000108122
7.31223e-05
5.52315e-05
5.90766e-05
7.93642e-07
7.94112e-07
7.94626e-07
7.95189e-07
7.95806e-07
7.96484e-07
7.97227e-07
7.98044e-07
7.98942e-07
7.99929e-07
8.01016e-07
8.02213e-07
8.03535e-07
8.04999e-07
8.06637e-07
8.08476e-07
8.1055e-07
8.12915e-07
8.15665e-07
8.18979e-07
8.23233e-07
8.29316e-07
8.3954e-07
8.61236e-07
9.18015e-07
1.11744e-06
2.38846e-06
2.16413e-05
6.81031e-05
0.00010524
0.00015279
0.000192906
0.000224174
0.000270804
0.000291201
0.000261576
0.000191835
7.36579e-07
7.36778e-07
7.37002e-07
7.37253e-07
7.37534e-07
7.3785e-07
7.38206e-07
7.38604e-07
7.39053e-07
7.39559e-07
7.40129e-07
7.40774e-07
7.41504e-07
7.42331e-07
7.43268e-07
7.44333e-07
7.45542e-07
7.46922e-07
7.48513e-07
7.50394e-07
7.52736e-07
7.55976e-07
7.61257e-07
7.71829e-07
7.96299e-07
8.59515e-07
1.05375e-06
2.28628e-06
7.18336e-06
1.0898e-05
1.19526e-05
1.56962e-05
2.45004e-05
3.67771e-05
4.73641e-05
6.09059e-05
6.96347e-05
7.14877e-07
7.15025e-07
7.15194e-07
7.15386e-07
7.15605e-07
7.15854e-07
7.16138e-07
7.16461e-07
7.1683e-07
7.17252e-07
7.17735e-07
7.18288e-07
7.18922e-07
7.1965e-07
7.20486e-07
7.21444e-07
7.22544e-07
7.23813e-07
7.25292e-07
7.27056e-07
7.29255e-07
7.32208e-07
7.3666e-07
7.44407e-07
7.5987e-07
7.93909e-07
8.70411e-07
1.03229e-06
1.35052e-06
1.60781e-06
1.92353e-06
2.3249e-06
2.82226e-06
3.52255e-06
4.3995e-06
5.70927e-06
7.51503e-06
7.06306e-07
7.06437e-07
7.06588e-07
7.06762e-07
7.06961e-07
7.07189e-07
7.07451e-07
7.07752e-07
7.08098e-07
7.08497e-07
7.08956e-07
7.09485e-07
7.10095e-07
7.10799e-07
7.11611e-07
7.12549e-07
7.13632e-07
7.14888e-07
7.16356e-07
7.18101e-07
7.20228e-07
7.22931e-07
7.26582e-07
7.31888e-07
7.40178e-07
7.53942e-07
7.78077e-07
8.21416e-07
8.98682e-07
9.92429e-07
1.05135e-06
1.10114e-06
1.17159e-06
1.26886e-06
1.40159e-06
1.59467e-06
1.86083e-06
7.03549e-07
7.03674e-07
7.03819e-07
7.03985e-07
7.04177e-07
7.04397e-07
7.04652e-07
7.04946e-07
7.05285e-07
7.05677e-07
7.0613e-07
7.06653e-07
7.07257e-07
7.07956e-07
7.08765e-07
7.09702e-07
7.10789e-07
7.12055e-07
7.1354e-07
7.1531e-07
7.17469e-07
7.20197e-07
7.23806e-07
7.28846e-07
7.36241e-07
7.47371e-07
7.63637e-07
7.84512e-07
8.04908e-07
8.23247e-07
8.46227e-07
8.73681e-07
9.05613e-07
9.44676e-07
9.94157e-07
1.06144e-06
1.15015e-06
7.03557e-07
7.03681e-07
7.03825e-07
7.0399e-07
7.04181e-07
7.04401e-07
7.04656e-07
7.0495e-07
7.0529e-07
7.05683e-07
7.06136e-07
7.06661e-07
7.07268e-07
7.07971e-07
7.08786e-07
7.09732e-07
7.1083e-07
7.12112e-07
7.13619e-07
7.15409e-07
7.17562e-07
7.20197e-07
7.23488e-07
7.27692e-07
7.33175e-07
7.40438e-07
7.50134e-07
7.63055e-07
7.79696e-07
7.98583e-07
8.16947e-07
8.35418e-07
8.57186e-07
8.84409e-07
9.18012e-07
9.61458e-07
1.01427e-06
7.06328e-07
7.06457e-07
7.06604e-07
7.06775e-07
7.06971e-07
7.07198e-07
7.07459e-07
7.0776e-07
7.08108e-07
7.08507e-07
7.08968e-07
7.09501e-07
7.10117e-07
7.1083e-07
7.11656e-07
7.12611e-07
7.13721e-07
7.15016e-07
7.16537e-07
7.18339e-07
7.205e-07
7.23133e-07
7.26405e-07
7.30548e-07
7.35863e-07
7.42674e-07
7.51178e-07
7.61198e-07
7.7209e-07
7.83563e-07
7.96469e-07
8.11914e-07
8.3102e-07
8.55488e-07
8.86373e-07
9.26865e-07
9.76413e-07
7.14909e-07
7.15053e-07
7.15216e-07
7.15404e-07
7.1562e-07
7.15866e-07
7.16148e-07
7.16471e-07
7.16841e-07
7.17264e-07
7.17749e-07
7.18306e-07
7.18947e-07
7.19686e-07
7.20536e-07
7.21516e-07
7.22651e-07
7.23969e-07
7.25511e-07
7.27326e-07
7.2948e-07
7.32063e-07
7.35185e-07
7.38994e-07
7.43676e-07
7.49457e-07
7.56583e-07
7.65297e-07
7.75812e-07
7.88157e-07
8.02399e-07
8.19034e-07
8.38871e-07
8.63215e-07
8.92323e-07
9.29142e-07
9.70472e-07
7.36607e-07
7.36803e-07
7.37022e-07
7.37269e-07
7.37546e-07
7.37859e-07
7.38211e-07
7.38608e-07
7.39056e-07
7.39561e-07
7.40131e-07
7.40777e-07
7.41511e-07
7.42344e-07
7.4329e-07
7.44369e-07
7.45601e-07
7.47017e-07
7.48649e-07
7.50545e-07
7.52763e-07
7.55382e-07
7.5851e-07
7.62284e-07
7.66869e-07
7.72433e-07
7.79113e-07
7.87007e-07
7.96198e-07
8.06853e-07
8.1935e-07
8.34346e-07
8.52557e-07
8.75107e-07
9.02106e-07
9.36964e-07
9.7329e-07
7.93646e-07
7.94113e-07
7.94624e-07
7.95184e-07
7.95798e-07
7.96471e-07
7.97211e-07
7.98024e-07
7.98918e-07
7.999e-07
8.00982e-07
8.02174e-07
8.03491e-07
8.04946e-07
8.06554e-07
8.08333e-07
8.10308e-07
8.12505e-07
8.14958e-07
8.17708e-07
8.20809e-07
8.2433e-07
8.28359e-07
8.33006e-07
8.38409e-07
8.44733e-07
8.52168e-07
8.6092e-07
8.71201e-07
8.83245e-07
8.9731e-07
9.13768e-07
9.32962e-07
9.55823e-07
9.81348e-07
1.01527e-06
1.04331e-06
1.13124e-06
1.13482e-06
1.13871e-06
1.14292e-06
1.14748e-06
1.15242e-06
1.15776e-06
1.16355e-06
1.16983e-06
1.17664e-06
1.18403e-06
1.19206e-06
1.20079e-06
1.21028e-06
1.22061e-06
1.23188e-06
1.2442e-06
1.25768e-06
1.27248e-06
1.28875e-06
1.3067e-06
1.32655e-06
1.34859e-06
1.37311e-06
1.40046e-06
1.43099e-06
1.46509e-06
1.50317e-06
1.54565e-06
1.59301e-06
1.64582e-06
1.7048e-06
1.77084e-06
1.84494e-06
1.92815e-06
2.02196e-06
2.12518e-06
1.2305e-06
1.23411e-06
1.23802e-06
1.24225e-06
1.24683e-06
1.25178e-06
1.25713e-06
1.26292e-06
1.26919e-06
1.27598e-06
1.28332e-06
1.29125e-06
1.29981e-06
1.30903e-06
1.31895e-06
1.32958e-06
1.34094e-06
1.35301e-06
1.36571e-06
1.37888e-06
1.39219e-06
1.405e-06
1.4161e-06
1.42327e-06
1.42339e-06
1.42139e-06
2.44737e-06
4.48134e-05
0.000140782
0.000145289
0.000122173
0.000100513
7.71336e-05
5.58446e-05
3.88728e-05
2.43337e-05
1.79915e-05
7.66397e-07
7.66752e-07
7.67141e-07
7.67571e-07
7.68047e-07
7.68576e-07
7.69163e-07
7.69811e-07
7.70529e-07
7.71325e-07
7.72211e-07
7.73201e-07
7.74314e-07
7.75569e-07
7.7699e-07
7.7861e-07
7.80473e-07
7.82643e-07
7.85232e-07
7.88445e-07
7.92704e-07
7.98948e-07
8.09471e-07
8.30688e-07
8.81487e-07
1.03268e-06
1.6478e-06
8.25631e-06
4.08689e-05
6.3655e-05
7.0843e-05
7.41304e-05
7.80327e-05
7.84027e-05
7.55201e-05
6.88257e-05
5.79037e-05
6.64881e-07
6.64888e-07
6.64904e-07
6.64932e-07
6.64974e-07
6.65034e-07
6.65113e-07
6.65215e-07
6.65344e-07
6.65507e-07
6.6571e-07
6.65961e-07
6.6627e-07
6.66649e-07
6.6711e-07
6.67666e-07
6.68337e-07
6.69146e-07
6.70136e-07
6.71388e-07
6.73081e-07
6.75651e-07
6.80224e-07
6.89753e-07
7.11532e-07
7.6487e-07
9.08591e-07
1.43684e-06
4.04174e-06
7.0888e-06
8.17759e-06
8.78031e-06
1.01565e-05
1.25727e-05
1.55172e-05
1.90193e-05
2.23006e-05
6.25695e-07
6.25626e-07
6.25561e-07
6.25502e-07
6.2545e-07
6.25409e-07
6.2538e-07
6.25367e-07
6.25374e-07
6.25407e-07
6.25472e-07
6.25577e-07
6.25731e-07
6.25944e-07
6.26227e-07
6.26595e-07
6.27063e-07
6.27654e-07
6.28407e-07
6.29393e-07
6.3076e-07
6.32825e-07
6.36316e-07
6.42955e-07
6.56795e-07
6.8713e-07
7.5417e-07
8.91405e-07
1.13371e-06
1.36264e-06
1.64648e-06
2.03706e-06
2.41397e-06
2.76447e-06
3.1065e-06
3.41585e-06
3.87379e-06
6.10325e-07
6.10231e-07
6.10139e-07
6.10051e-07
6.09968e-07
6.09894e-07
6.0983e-07
6.09781e-07
6.0975e-07
6.09744e-07
6.09769e-07
6.09831e-07
6.0994e-07
6.10107e-07
6.10343e-07
6.10663e-07
6.11083e-07
6.11628e-07
6.12332e-07
6.13255e-07
6.14498e-07
6.16253e-07
6.18885e-07
6.23095e-07
6.30185e-07
6.42473e-07
6.63976e-07
7.01424e-07
7.65884e-07
8.51934e-07
9.13493e-07
9.58539e-07
1.01927e-06
1.10043e-06
1.20592e-06
1.33958e-06
1.50747e-06
6.05297e-07
6.05194e-07
6.05092e-07
6.04994e-07
6.04901e-07
6.04815e-07
6.04739e-07
6.04678e-07
6.04636e-07
6.04618e-07
6.04631e-07
6.0468e-07
6.04777e-07
6.04932e-07
6.05158e-07
6.0547e-07
6.05886e-07
6.06432e-07
6.07147e-07
6.08089e-07
6.09361e-07
6.11142e-07
6.13747e-07
6.17729e-07
6.24016e-07
6.33989e-07
6.49117e-07
6.69375e-07
6.90618e-07
7.09566e-07
7.31492e-07
7.57723e-07
7.8792e-07
8.23882e-07
8.69136e-07
9.30513e-07
1.01403e-06
6.05305e-07
6.05202e-07
6.05099e-07
6.05e-07
6.04905e-07
6.04819e-07
6.04743e-07
6.04682e-07
6.0464e-07
6.04623e-07
6.04637e-07
6.04689e-07
6.04789e-07
6.04949e-07
6.05182e-07
6.05503e-07
6.05934e-07
6.06501e-07
6.07243e-07
6.08213e-07
6.09494e-07
6.11203e-07
6.13519e-07
6.16707e-07
6.21147e-07
6.27356e-07
6.35977e-07
6.47705e-07
6.62894e-07
6.80346e-07
6.97691e-07
7.15394e-07
7.36685e-07
7.63958e-07
7.98618e-07
8.43752e-07
9.00716e-07
6.10349e-07
6.10252e-07
6.10156e-07
6.10065e-07
6.09979e-07
6.09903e-07
6.09838e-07
6.09788e-07
6.09758e-07
6.09753e-07
6.09779e-07
6.09844e-07
6.09959e-07
6.10135e-07
6.10384e-07
6.10722e-07
6.11171e-07
6.11758e-07
6.1252e-07
6.13512e-07
6.14809e-07
6.16526e-07
6.18834e-07
6.21975e-07
6.26268e-07
6.32066e-07
6.39614e-07
6.48827e-07
6.5917e-07
6.70169e-07
6.82475e-07
6.97332e-07
7.16043e-07
7.40335e-07
7.7162e-07
8.1285e-07
8.6453e-07
6.2573e-07
6.25657e-07
6.25587e-07
6.25522e-07
6.25465e-07
6.2542e-07
6.25387e-07
6.25373e-07
6.2538e-07
6.25412e-07
6.25478e-07
6.25584e-07
6.25742e-07
6.25962e-07
6.26256e-07
6.2664e-07
6.27135e-07
6.27767e-07
6.28574e-07
6.29602e-07
6.30918e-07
6.32609e-07
6.34791e-07
6.37616e-07
6.41282e-07
6.46029e-07
6.52126e-07
6.59827e-07
6.69329e-07
6.80766e-07
6.94254e-07
7.10304e-07
7.29803e-07
7.54006e-07
7.83475e-07
8.2067e-07
8.64264e-07
6.64917e-07
6.64919e-07
6.64929e-07
6.6495e-07
6.64986e-07
6.65038e-07
6.65111e-07
6.65208e-07
6.65333e-07
6.65491e-07
6.65688e-07
6.65932e-07
6.66235e-07
6.66606e-07
6.67056e-07
6.67601e-07
6.6826e-07
6.69059e-07
6.7003e-07
6.71216e-07
6.72673e-07
6.7448e-07
6.76744e-07
6.79611e-07
6.83254e-07
6.87869e-07
6.93645e-07
7.0072e-07
7.09207e-07
7.19289e-07
7.31344e-07
7.46022e-07
7.64029e-07
7.86502e-07
8.1378e-07
8.48677e-07
8.86994e-07
7.66413e-07
7.66759e-07
7.67139e-07
7.67558e-07
7.68023e-07
7.68536e-07
7.69104e-07
7.69734e-07
7.70432e-07
7.71203e-07
7.72057e-07
7.73005e-07
7.74059e-07
7.75232e-07
7.76537e-07
7.77994e-07
7.79624e-07
7.81453e-07
7.83515e-07
7.85848e-07
7.88508e-07
7.9156e-07
7.95095e-07
7.9923e-07
8.04111e-07
8.09925e-07
8.1689e-07
8.25242e-07
8.35238e-07
8.47144e-07
8.61248e-07
8.77931e-07
8.9756e-07
9.21008e-07
9.47742e-07
9.82122e-07
1.01429e-06
1.23044e-06
1.23407e-06
1.23799e-06
1.24225e-06
1.24685e-06
1.25185e-06
1.25725e-06
1.26311e-06
1.26947e-06
1.27636e-06
1.28385e-06
1.29199e-06
1.30084e-06
1.31047e-06
1.32096e-06
1.33242e-06
1.34496e-06
1.35869e-06
1.37378e-06
1.3904e-06
1.40876e-06
1.42911e-06
1.45173e-06
1.47693e-06
1.50507e-06
1.5365e-06
1.57161e-06
1.61079e-06
1.65445e-06
1.70311e-06
1.7574e-06
1.81812e-06
1.88623e-06
1.96286e-06
2.04923e-06
2.14666e-06
2.25536e-06
1.28538e-06
1.28896e-06
1.29283e-06
1.29703e-06
1.30156e-06
1.30647e-06
1.31178e-06
1.31752e-06
1.32374e-06
1.33048e-06
1.33777e-06
1.34565e-06
1.35416e-06
1.36333e-06
1.3732e-06
1.38379e-06
1.39512e-06
1.40717e-06
1.41989e-06
1.43314e-06
1.44667e-06
1.45998e-06
1.4722e-06
1.48193e-06
1.48762e-06
1.49149e-06
1.5805e-06
6.98084e-06
6.85507e-05
0.000106519
9.22295e-05
6.1016e-05
4.12989e-05
2.79224e-05
1.73839e-05
1.0677e-05
7.17908e-06
7.51231e-07
7.51597e-07
7.52e-07
7.52445e-07
7.5294e-07
7.53491e-07
7.54104e-07
7.54782e-07
7.55531e-07
7.56362e-07
7.57288e-07
7.58326e-07
7.59497e-07
7.60821e-07
7.62325e-07
7.64042e-07
7.66018e-07
7.68324e-07
7.71076e-07
7.74486e-07
7.7897e-07
7.85424e-07
7.95915e-07
8.15637e-07
8.58677e-07
9.67539e-07
1.30789e-06
2.83752e-06
1.37447e-05
2.90177e-05
2.71337e-05
2.30743e-05
1.99927e-05
1.85169e-05
1.80014e-05
1.81262e-05
1.86445e-05
6.22599e-07
6.22594e-07
6.22598e-07
6.22613e-07
6.22643e-07
6.22691e-07
6.22759e-07
6.2285e-07
6.22969e-07
6.23122e-07
6.23315e-07
6.23559e-07
6.23865e-07
6.24242e-07
6.24706e-07
6.2527e-07
6.25955e-07
6.26786e-07
6.27808e-07
6.29103e-07
6.30847e-07
6.33459e-07
6.37968e-07
6.46942e-07
6.66442e-07
7.10868e-07
8.1598e-07
1.0737e-06
1.89818e-06
3.60472e-06
5.08714e-06
6.16056e-06
6.81688e-06
7.52597e-06
8.58922e-06
9.83018e-06
1.08671e-05
5.71681e-07
5.71591e-07
5.71504e-07
5.71421e-07
5.71346e-07
5.71279e-07
5.71225e-07
5.71186e-07
5.71166e-07
5.71173e-07
5.7121e-07
5.71287e-07
5.71413e-07
5.71598e-07
5.71855e-07
5.72198e-07
5.72641e-07
5.7321e-07
5.73942e-07
5.74908e-07
5.76251e-07
5.78277e-07
5.81662e-07
5.87939e-07
6.00573e-07
6.27037e-07
6.82496e-07
7.91783e-07
9.65579e-07
1.13823e-06
1.26607e-06
1.45709e-06
1.65619e-06
1.82748e-06
1.98392e-06
2.15692e-06
2.50832e-06
5.51225e-07
5.51106e-07
5.50988e-07
5.50872e-07
5.50761e-07
5.50657e-07
5.50562e-07
5.5048e-07
5.50416e-07
5.50376e-07
5.50365e-07
5.50391e-07
5.50462e-07
5.50591e-07
5.5079e-07
5.51072e-07
5.51455e-07
5.51961e-07
5.52628e-07
5.53513e-07
5.54717e-07
5.56426e-07
5.58999e-07
5.63106e-07
5.69958e-07
5.81619e-07
6.01319e-07
6.33626e-07
6.84455e-07
7.54275e-07
8.17471e-07
8.64355e-07
9.15688e-07
9.78677e-07
1.05855e-06
1.15851e-06
1.29237e-06
5.44321e-07
5.44192e-07
5.44063e-07
5.43935e-07
5.43811e-07
5.43693e-07
5.43584e-07
5.43488e-07
5.4341e-07
5.43354e-07
5.43328e-07
5.43339e-07
5.43395e-07
5.43508e-07
5.43693e-07
5.43963e-07
5.44339e-07
5.44844e-07
5.45518e-07
5.4642e-07
5.47652e-07
5.49391e-07
5.51945e-07
5.5585e-07
5.61987e-07
5.71647e-07
5.86229e-07
6.05991e-07
6.27832e-07
6.47318e-07
6.66897e-07
6.89765e-07
7.171e-07
7.5049e-07
7.9363e-07
8.53058e-07
9.373e-07
5.44329e-07
5.44199e-07
5.44068e-07
5.4394e-07
5.43815e-07
5.43697e-07
5.43588e-07
5.43492e-07
5.43414e-07
5.43359e-07
5.43334e-07
5.43348e-07
5.43407e-07
5.43526e-07
5.43719e-07
5.44001e-07
5.44393e-07
5.44923e-07
5.45629e-07
5.46568e-07
5.47822e-07
5.49512e-07
5.51822e-07
5.55023e-07
5.59502e-07
5.65774e-07
5.74451e-07
5.86125e-07
6.01022e-07
6.18259e-07
6.36117e-07
6.54883e-07
6.77363e-07
7.05992e-07
7.42562e-07
7.9011e-07
8.51415e-07
5.51246e-07
5.51125e-07
5.51004e-07
5.50885e-07
5.50771e-07
5.50665e-07
5.50568e-07
5.50486e-07
5.50422e-07
5.50382e-07
5.50373e-07
5.50403e-07
5.50479e-07
5.50618e-07
5.5083e-07
5.51132e-07
5.51546e-07
5.521e-07
5.52833e-07
5.53798e-07
5.55075e-07
5.5678e-07
5.59088e-07
5.62247e-07
5.66584e-07
5.72469e-07
5.80191e-07
5.89744e-07
6.00728e-07
6.12642e-07
6.25889e-07
6.41691e-07
6.61545e-07
6.87258e-07
7.2048e-07
7.64004e-07
8.19447e-07
5.71713e-07
5.7162e-07
5.71528e-07
5.7144e-07
5.7136e-07
5.71289e-07
5.71231e-07
5.71189e-07
5.71168e-07
5.71174e-07
5.7121e-07
5.71288e-07
5.71417e-07
5.71608e-07
5.71875e-07
5.72232e-07
5.72703e-07
5.73314e-07
5.74102e-07
5.75117e-07
5.76427e-07
5.78124e-07
5.80328e-07
5.83201e-07
5.86953e-07
5.91843e-07
5.98158e-07
6.06179e-07
6.16119e-07
6.28136e-07
6.42424e-07
6.59514e-07
6.80318e-07
7.06062e-07
7.37627e-07
7.77243e-07
8.24776e-07
6.22636e-07
6.22627e-07
6.22625e-07
6.22634e-07
6.22656e-07
6.22695e-07
6.22754e-07
6.22837e-07
6.2295e-07
6.23095e-07
6.2328e-07
6.23513e-07
6.23806e-07
6.24168e-07
6.24612e-07
6.25153e-07
6.25812e-07
6.26615e-07
6.27594e-07
6.28794e-07
6.30273e-07
6.32114e-07
6.34428e-07
6.37368e-07
6.41122e-07
6.45903e-07
6.51918e-07
6.59344e-07
6.68335e-07
6.791e-07
6.92019e-07
7.07736e-07
7.27073e-07
7.5117e-07
7.80576e-07
8.1769e-07
8.59967e-07
7.51265e-07
7.51623e-07
7.52014e-07
7.52446e-07
7.52924e-07
7.53451e-07
7.54036e-07
7.54685e-07
7.55401e-07
7.5619e-07
7.5706e-07
7.58024e-07
7.59099e-07
7.60298e-07
7.61635e-07
7.63129e-07
7.64803e-07
7.66683e-07
7.68801e-07
7.71199e-07
7.7393e-07
7.77067e-07
7.80701e-07
7.84957e-07
7.89991e-07
7.96005e-07
8.03237e-07
8.11963e-07
8.22473e-07
8.35053e-07
8.50027e-07
8.67795e-07
8.88799e-07
9.13912e-07
9.42837e-07
9.78735e-07
1.01464e-06
1.28532e-06
1.28891e-06
1.2928e-06
1.29701e-06
1.30157e-06
1.30651e-06
1.31187e-06
1.31767e-06
1.32396e-06
1.33079e-06
1.3382e-06
1.34624e-06
1.35499e-06
1.36453e-06
1.37494e-06
1.38631e-06
1.39876e-06
1.41242e-06
1.42744e-06
1.44401e-06
1.46234e-06
1.48267e-06
1.5053e-06
1.53053e-06
1.55873e-06
1.59025e-06
1.62545e-06
1.66474e-06
1.70855e-06
1.75736e-06
1.81185e-06
1.87285e-06
1.94142e-06
2.01872e-06
2.10608e-06
2.20479e-06
2.31606e-06
1.31607e-06
1.31959e-06
1.3234e-06
1.32752e-06
1.33199e-06
1.33682e-06
1.34204e-06
1.3477e-06
1.35383e-06
1.36047e-06
1.36766e-06
1.37544e-06
1.38384e-06
1.3929e-06
1.40266e-06
1.41314e-06
1.42437e-06
1.43633e-06
1.449e-06
1.46227e-06
1.47594e-06
1.48966e-06
1.50284e-06
1.51462e-06
1.52432e-06
1.53362e-06
1.55491e-06
2.07372e-06
1.13825e-05
3.5777e-05
4.43308e-05
3.71988e-05
2.53112e-05
1.51746e-05
8.70273e-06
5.30881e-06
3.5076e-06
7.41625e-07
7.42021e-07
7.42455e-07
7.42935e-07
7.4347e-07
7.44067e-07
7.44728e-07
7.45459e-07
7.46264e-07
7.47156e-07
7.48148e-07
7.49262e-07
7.50516e-07
7.51933e-07
7.5354e-07
7.55372e-07
7.57478e-07
7.59927e-07
7.62837e-07
7.66413e-07
7.71045e-07
7.77539e-07
7.87661e-07
8.0549e-07
8.40997e-07
9.19858e-07
1.11931e-06
1.67233e-06
3.61668e-06
8.39206e-06
1.0378e-05
8.92892e-06
7.39555e-06
6.40424e-06
6.21504e-06
6.73024e-06
7.52495e-06
5.95964e-07
5.95992e-07
5.96032e-07
5.96086e-07
5.96159e-07
5.96254e-07
5.96374e-07
5.96522e-07
5.96703e-07
5.96923e-07
5.9719e-07
5.97516e-07
5.97911e-07
5.98387e-07
5.9896e-07
5.99644e-07
6.00462e-07
6.01441e-07
6.02628e-07
6.04105e-07
6.06043e-07
6.08831e-07
6.13381e-07
6.21833e-07
6.39046e-07
6.7548e-07
7.52983e-07
9.11737e-07
1.20261e-06
1.72642e-06
2.43089e-06
3.24815e-06
3.92394e-06
4.4386e-06
4.84873e-06
5.08533e-06
5.11593e-06
5.36898e-07
5.36839e-07
5.36787e-07
5.36742e-07
5.36708e-07
5.36688e-07
5.36684e-07
5.367e-07
5.3674e-07
5.36812e-07
5.36921e-07
5.37077e-07
5.3729e-07
5.37571e-07
5.37933e-07
5.38389e-07
5.38958e-07
5.39665e-07
5.40549e-07
5.41681e-07
5.43199e-07
5.45391e-07
5.48871e-07
5.54962e-07
5.66481e-07
5.89178e-07
6.33868e-07
7.16583e-07
8.41384e-07
9.60902e-07
1.02483e-06
1.07776e-06
1.15444e-06
1.23994e-06
1.34509e-06
1.49299e-06
1.73403e-06
5.12568e-07
5.1248e-07
5.12395e-07
5.12316e-07
5.12246e-07
5.12186e-07
5.1214e-07
5.12112e-07
5.12107e-07
5.1213e-07
5.12188e-07
5.12291e-07
5.12448e-07
5.1267e-07
5.12969e-07
5.13362e-07
5.13866e-07
5.14506e-07
5.15319e-07
5.16365e-07
5.17743e-07
5.19637e-07
5.2239e-07
5.26628e-07
5.33449e-07
5.44626e-07
5.62697e-07
5.90624e-07
6.30874e-07
6.82795e-07
7.3593e-07
7.79927e-07
8.23575e-07
8.731e-07
9.35135e-07
1.01578e-06
1.13038e-06
5.04126e-07
5.04027e-07
5.03931e-07
5.0384e-07
5.03756e-07
5.03682e-07
5.03621e-07
5.03578e-07
5.03557e-07
5.03565e-07
5.03607e-07
5.03692e-07
5.03832e-07
5.04038e-07
5.04322e-07
5.04702e-07
5.05198e-07
5.05836e-07
5.06655e-07
5.07716e-07
5.0912e-07
5.1104e-07
5.13774e-07
5.17825e-07
5.24005e-07
5.33474e-07
5.4748e-07
5.66384e-07
5.87908e-07
6.07573e-07
6.25175e-07
6.44231e-07
6.67916e-07
6.98576e-07
7.40011e-07
7.98605e-07
8.83893e-07
5.04132e-07
5.04033e-07
5.03936e-07
5.03844e-07
5.03759e-07
5.03685e-07
5.03624e-07
5.03581e-07
5.0356e-07
5.03569e-07