/*--------------------------------*- C++ -*----------------------------------*\
| =========                 |                                                 |
| \\      /  F ield         | OpenFOAM: The Open Source CFD Toolbox           |
|  \\    /   O peration     | Version:  2.3.1                                 |
|   \\  /    A nd           | Web:      www.OpenFOAM.org                      |
|    \\/     M anipulation  |                                                 |
\*---------------------------------------------------------------------------*/
FoamFile
{
    version     2.0;
    format      ascii;
    class       volScalarField;
    location    "10";
    object      epsilon;
}
// * * * * * * * * * * * * * * * * * * * * * * * * * * * * * * * * * * * * * //

dimensions      [0 2 -3 0 0 0 0];

internalField   nonuniform List<scalar> 
37530
(
9.4898e-07
9.5518e-07
9.61893e-07
9.69159e-07
9.7702e-07
9.85524e-07
9.94726e-07
1.00469e-06
1.01547e-06
1.02713e-06
1.03975e-06
1.05337e-06
1.06808e-06
1.0839e-06
1.10089e-06
1.11905e-06
1.13835e-06
1.15866e-06
1.17981e-06
1.20139e-06
1.22248e-06
1.24131e-06
1.25552e-06
1.25852e-06
1.297e-06
6.24391e-06
0.000121027
0.000280311
0.00028937
0.000269992
0.000286357
0.000293177
0.000259602
0.000226453
0.000222189
0.0002268
0.000239441
1.44979e-06
1.45887e-06
1.46871e-06
1.47934e-06
1.49084e-06
1.50328e-06
1.51674e-06
1.5313e-06
1.54706e-06
1.5641e-06
1.58252e-06
1.6024e-06
1.62382e-06
1.64685e-06
1.67153e-06
1.69788e-06
1.72584e-06
1.75526e-06
1.78572e-06
1.81636e-06
1.8458e-06
1.87154e-06
1.88938e-06
1.89376e-06
1.87735e-06
2.04076e-06
1.06112e-05
5.48703e-05
7.73887e-05
8.55748e-05
8.84458e-05
0.000124048
0.000214575
0.000332223
0.000375246
0.000371123
0.00034558
1.67194e-06
1.68166e-06
1.69219e-06
1.70357e-06
1.71587e-06
1.72918e-06
1.74359e-06
1.7592e-06
1.77609e-06
1.79434e-06
1.81407e-06
1.83537e-06
1.85833e-06
1.88303e-06
1.90954e-06
1.9379e-06
1.96811e-06
2.00006e-06
2.03351e-06
2.06797e-06
2.10253e-06
2.13561e-06
2.16465e-06
2.18758e-06
2.20389e-06
2.2097e-06
2.48588e-06
4.94426e-06
9.00637e-06
1.16662e-05
1.37927e-05
1.72597e-05
2.41203e-05
4.59138e-05
8.74079e-05
0.000146729
0.00019015
1.7574e-06
1.76737e-06
1.77815e-06
1.7898e-06
1.80241e-06
1.81606e-06
1.83084e-06
1.84686e-06
1.86419e-06
1.88294e-06
1.9032e-06
1.92509e-06
1.94871e-06
1.97417e-06
2.00155e-06
2.03092e-06
2.06237e-06
2.09589e-06
2.13144e-06
2.16886e-06
2.20789e-06
2.24828e-06
2.28994e-06
2.33353e-06
2.382e-06
2.44497e-06
2.53074e-06
2.75968e-06
3.19278e-06
3.561e-06
3.84956e-06
4.1838e-06
4.78381e-06
5.99988e-06
8.78365e-06
1.48571e-05
2.60245e-05
1.78503e-06
1.79506e-06
1.80592e-06
1.81766e-06
1.83037e-06
1.84414e-06
1.85905e-06
1.87521e-06
1.89269e-06
1.91161e-06
1.93207e-06
1.9542e-06
1.9781e-06
2.00391e-06
2.03172e-06
2.06166e-06
2.09386e-06
2.12843e-06
2.16546e-06
2.20497e-06
2.24696e-06
2.29134e-06
2.33808e-06
2.38737e-06
2.43999e-06
2.49889e-06
2.57055e-06
2.66484e-06
2.79029e-06
2.9453e-06
3.12053e-06
3.31087e-06
3.52472e-06
3.77794e-06
4.13765e-06
4.72513e-06
5.75035e-06
1.79226e-06
1.80231e-06
1.81319e-06
1.82497e-06
1.83772e-06
1.85153e-06
1.86648e-06
1.88268e-06
1.90022e-06
1.9192e-06
1.93974e-06
1.96197e-06
1.98603e-06
2.01204e-06
2.04014e-06
2.07048e-06
2.10324e-06
2.13862e-06
2.17681e-06
2.21803e-06
2.26258e-06
2.31092e-06
2.36389e-06
2.42291e-06
2.49047e-06
2.57054e-06
2.66901e-06
2.79028e-06
2.94092e-06
3.11644e-06
3.30047e-06
3.4816e-06
3.66443e-06
3.86284e-06
4.10094e-06
4.39695e-06
4.77372e-06
1.79218e-06
1.80224e-06
1.81313e-06
1.82493e-06
1.8377e-06
1.85153e-06
1.8665e-06
1.88272e-06
1.90029e-06
1.91931e-06
1.93992e-06
1.96224e-06
1.98641e-06
2.01258e-06
2.0409e-06
2.07158e-06
2.10483e-06
2.14089e-06
2.18005e-06
2.22262e-06
2.26901e-06
2.31971e-06
2.37536e-06
2.43681e-06
2.50526e-06
2.58236e-06
2.67029e-06
2.77166e-06
2.88856e-06
3.02226e-06
3.17364e-06
3.34395e-06
3.5348e-06
3.74885e-06
4.00071e-06
4.29696e-06
4.65437e-06
1.78479e-06
1.79485e-06
1.80576e-06
1.81756e-06
1.83033e-06
1.84416e-06
1.85914e-06
1.87536e-06
1.89293e-06
1.91198e-06
1.93262e-06
1.95499e-06
1.97924e-06
2.00552e-06
2.03402e-06
2.06497e-06
2.09862e-06
2.13524e-06
2.17518e-06
2.21881e-06
2.26664e-06
2.31931e-06
2.37774e-06
2.44322e-06
2.51747e-06
2.60268e-06
2.70133e-06
2.81572e-06
2.94753e-06
3.09631e-06
3.25975e-06
3.43667e-06
3.62862e-06
3.84265e-06
4.09533e-06
4.3957e-06
4.75545e-06
1.75704e-06
1.76705e-06
1.77791e-06
1.78965e-06
1.80236e-06
1.81611e-06
1.831e-06
1.84712e-06
1.8646e-06
1.88354e-06
1.90409e-06
1.92638e-06
1.95056e-06
1.97679e-06
2.00528e-06
2.0363e-06
2.07009e-06
2.10698e-06
2.14732e-06
2.19157e-06
2.24026e-06
2.29405e-06
2.35377e-06
2.42035e-06
2.4949e-06
2.57876e-06
2.67339e-06
2.78036e-06
2.90118e-06
3.03724e-06
3.19021e-06
3.36241e-06
3.55583e-06
3.77367e-06
4.0307e-06
4.33348e-06
4.69408e-06
1.67157e-06
1.68135e-06
1.69195e-06
1.70343e-06
1.71584e-06
1.72927e-06
1.74382e-06
1.75958e-06
1.77666e-06
1.79518e-06
1.81529e-06
1.83712e-06
1.86082e-06
1.88655e-06
1.91456e-06
1.94507e-06
1.97839e-06
2.01482e-06
2.05475e-06
2.09866e-06
2.1471e-06
2.20078e-06
2.26053e-06
2.32742e-06
2.40269e-06
2.48778e-06
2.5842e-06
2.6934e-06
2.81658e-06
2.95472e-06
3.10863e-06
3.27968e-06
3.4698e-06
3.68239e-06
3.92616e-06
4.21604e-06
4.55867e-06
1.44957e-06
1.45869e-06
1.46859e-06
1.4793e-06
1.49089e-06
1.50345e-06
1.51706e-06
1.5318e-06
1.54778e-06
1.56513e-06
1.58397e-06
1.60444e-06
1.62669e-06
1.65088e-06
1.67723e-06
1.70598e-06
1.7374e-06
1.77182e-06
1.80961e-06
1.85124e-06
1.89726e-06
1.94831e-06
2.00517e-06
2.06873e-06
2.13996e-06
2.21994e-06
2.30982e-06
2.41077e-06
2.52403e-06
2.65093e-06
2.793e-06
2.95207e-06
3.13034e-06
3.32992e-06
3.55471e-06
3.80139e-06
4.10595e-06
9.48924e-07
9.55133e-07
9.61868e-07
9.69167e-07
9.77076e-07
9.85649e-07
9.94944e-07
1.00502e-06
1.01595e-06
1.02782e-06
1.04071e-06
1.05473e-06
1.06997e-06
1.08655e-06
1.10462e-06
1.12434e-06
1.14589e-06
1.16951e-06
1.19544e-06
1.22399e-06
1.25554e-06
1.29051e-06
1.32942e-06
1.37285e-06
1.42148e-06
1.47605e-06
1.5373e-06
1.60602e-06
1.68298e-06
1.76897e-06
1.86493e-06
1.97202e-06
2.0917e-06
2.22526e-06
2.37548e-06
2.53921e-06
2.73475e-06
9.40118e-07
9.43473e-07
9.47104e-07
9.51032e-07
9.5528e-07
9.59873e-07
9.64842e-07
9.70218e-07
9.76035e-07
9.82327e-07
9.8913e-07
9.96477e-07
1.0044e-06
1.01292e-06
1.02207e-06
1.03185e-06
1.04227e-06
1.05333e-06
1.06495e-06
1.07695e-06
1.08892e-06
1.09991e-06
1.10697e-06
1.10342e-06
1.07874e-06
1.66741e-06
2.91885e-05
0.000148105
0.000184093
0.000178196
0.00017169
0.00017494
0.0001641
0.000135422
0.000125323
0.00012141
0.000141744
8.70745e-07
8.72027e-07
8.73418e-07
8.74927e-07
8.76563e-07
8.78339e-07
8.80268e-07
8.82364e-07
8.84642e-07
8.87116e-07
8.89805e-07
8.92726e-07
8.95898e-07
8.99339e-07
9.0307e-07
9.07114e-07
9.11499e-07
9.16279e-07
9.21509e-07
9.27288e-07
9.3383e-07
9.41701e-07
9.52852e-07
9.76046e-07
1.03726e-06
1.28421e-06
4.8915e-06
4.1118e-05
9.39155e-05
0.000135903
0.000179401
0.00022246
0.000319379
0.00048845
0.000507962
0.000384523
0.000263003
8.93264e-07
8.94509e-07
8.9586e-07
8.97328e-07
8.98921e-07
9.00652e-07
9.02535e-07
9.04583e-07
9.06812e-07
9.09236e-07
9.11874e-07
9.14744e-07
9.17866e-07
9.21262e-07
9.24954e-07
9.28966e-07
9.33322e-07
9.38054e-07
9.43202e-07
9.48832e-07
9.55084e-07
9.62325e-07
9.71532e-07
9.87535e-07
1.02257e-06
1.10691e-06
1.39716e-06
3.94754e-06
1.013e-05
1.31262e-05
1.47936e-05
2.28771e-05
3.88947e-05
6.67719e-05
9.81204e-05
0.000132051
0.000156705
9.00698e-07
9.01962e-07
9.03335e-07
9.04826e-07
9.06447e-07
9.08208e-07
9.10126e-07
9.12213e-07
9.14485e-07
9.16958e-07
9.19651e-07
9.22584e-07
9.2578e-07
9.29261e-07
9.33052e-07
9.37182e-07
9.41683e-07
9.46595e-07
9.5197e-07
9.57887e-07
9.64488e-07
9.72068e-07
9.81305e-07
9.93874e-07
1.01419e-06
1.05534e-06
1.14048e-06
1.32792e-06
1.69678e-06
1.91287e-06
2.15257e-06
2.45471e-06
2.97654e-06
4.42766e-06
7.32541e-06
1.19261e-05
1.85971e-05
9.02231e-07
9.03504e-07
9.04886e-07
9.06387e-07
9.08019e-07
9.09794e-07
9.11726e-07
9.1383e-07
9.1612e-07
9.18615e-07
9.21332e-07
9.24293e-07
9.27522e-07
9.31043e-07
9.34884e-07
9.39075e-07
9.43653e-07
9.48664e-07
9.54163e-07
9.60229e-07
9.66978e-07
9.74612e-07
9.835e-07
9.94319e-07
1.00834e-06
1.02884e-06
1.06308e-06
1.11976e-06
1.21176e-06
1.3132e-06
1.38239e-06
1.44943e-06
1.53738e-06
1.6685e-06
1.88997e-06
2.27536e-06
2.86591e-06
9.02431e-07
9.03706e-07
9.0509e-07
9.06595e-07
9.08232e-07
9.10012e-07
9.11949e-07
9.14057e-07
9.16354e-07
9.18855e-07
9.21581e-07
9.24554e-07
9.27797e-07
9.31336e-07
9.352e-07
9.39423e-07
9.44045e-07
9.49113e-07
9.5469e-07
9.60857e-07
9.67735e-07
9.75511e-07
9.84499e-07
9.95228e-07
1.00855e-06
1.02577e-06
1.04814e-06
1.07457e-06
1.09987e-06
1.12426e-06
1.15512e-06
1.19182e-06
1.23412e-06
1.28533e-06
1.35033e-06
1.43946e-06
1.55674e-06
9.02428e-07
9.03703e-07
9.05088e-07
9.06594e-07
9.08232e-07
9.10013e-07
9.11951e-07
9.14061e-07
9.16359e-07
9.18862e-07
9.21592e-07
9.24569e-07
9.27819e-07
9.31367e-07
9.35245e-07
9.39488e-07
9.44138e-07
9.49245e-07
9.54873e-07
9.611e-07
9.68028e-07
9.75798e-07
9.84606e-07
9.94733e-07
1.00657e-06
1.02062e-06
1.03755e-06
1.0583e-06
1.08355e-06
1.11201e-06
1.14106e-06
1.17136e-06
1.20563e-06
1.24586e-06
1.29226e-06
1.34919e-06
1.4141e-06
9.02222e-07
9.03495e-07
9.0488e-07
9.06385e-07
9.0802e-07
9.09799e-07
9.11734e-07
9.13841e-07
9.16136e-07
9.18636e-07
9.21364e-07
9.2434e-07
9.27589e-07
9.31138e-07
9.35018e-07
9.39268e-07
9.43931e-07
9.49059e-07
9.54714e-07
9.60977e-07
9.67949e-07
9.75768e-07
9.84622e-07
9.94764e-07
1.0065e-06
1.02018e-06
1.03598e-06
1.05375e-06
1.07297e-06
1.09364e-06
1.11688e-06
1.14392e-06
1.1756e-06
1.21369e-06
1.25905e-06
1.31567e-06
1.38219e-06
9.00684e-07
9.0195e-07
9.03326e-07
9.04823e-07
9.06449e-07
9.08216e-07
9.10139e-07
9.12232e-07
9.14512e-07
9.16995e-07
9.19705e-07
9.22661e-07
9.25889e-07
9.29415e-07
9.33273e-07
9.37499e-07
9.4214e-07
9.47247e-07
9.52882e-07
9.59122e-07
9.66063e-07
9.73824e-07
9.82551e-07
9.92427e-07
1.00368e-06
1.01656e-06
1.03138e-06
1.04841e-06
1.06798e-06
1.09024e-06
1.11533e-06
1.14383e-06
1.17639e-06
1.21462e-06
1.25836e-06
1.3122e-06
1.37046e-06
8.93247e-07
8.94494e-07
8.95851e-07
8.97324e-07
8.98925e-07
9.00664e-07
9.02555e-07
9.04612e-07
9.06851e-07
9.0929e-07
9.11949e-07
9.14851e-07
9.18018e-07
9.21476e-07
9.25259e-07
9.29404e-07
9.33954e-07
9.3896e-07
9.44483e-07
9.50595e-07
9.57388e-07
9.64975e-07
9.735e-07
9.83134e-07
9.94071e-07
1.00651e-06
1.02063e-06
1.03656e-06
1.05442e-06
1.07444e-06
1.09712e-06
1.12323e-06
1.1535e-06
1.18928e-06
1.23054e-06
1.28191e-06
1.33516e-06
8.7072e-07
8.72005e-07
8.73402e-07
8.74918e-07
8.76563e-07
8.78348e-07
8.80287e-07
8.82394e-07
8.84683e-07
8.87174e-07
8.89887e-07
8.92843e-07
8.96063e-07
8.99575e-07
9.03408e-07
9.076e-07
9.12192e-07
9.1723e-07
9.22771e-07
9.28883e-07
9.35646e-07
9.4316e-07
9.51546e-07
9.60944e-07
9.71521e-07
9.83461e-07
9.96968e-07
1.01226e-06
1.02958e-06
1.04919e-06
1.0714e-06
1.09665e-06
1.12534e-06
1.1586e-06
1.19508e-06
1.24196e-06
1.28062e-06
9.40078e-07
9.43443e-07
9.47092e-07
9.51043e-07
9.5532e-07
9.59954e-07
9.64973e-07
9.70409e-07
9.76301e-07
9.82694e-07
9.89636e-07
9.97173e-07
1.00536e-06
1.01426e-06
1.02394e-06
1.0345e-06
1.04602e-06
1.05862e-06
1.07243e-06
1.08759e-06
1.1043e-06
1.12276e-06
1.14321e-06
1.16594e-06
1.19127e-06
1.21954e-06
1.25113e-06
1.28641e-06
1.3258e-06
1.36974e-06
1.41876e-06
1.47349e-06
1.53469e-06
1.60316e-06
1.67991e-06
1.76569e-06
1.86148e-06
1.13114e-06
1.13471e-06
1.13857e-06
1.14276e-06
1.14728e-06
1.15216e-06
1.15745e-06
1.16316e-06
1.16935e-06
1.17603e-06
1.18326e-06
1.19106e-06
1.19946e-06
1.20851e-06
1.21823e-06
1.22867e-06
1.23981e-06
1.25163e-06
1.26405e-06
1.27688e-06
1.28972e-06
1.30181e-06
1.31151e-06
1.31534e-06
1.30742e-06
1.37656e-06
7.93559e-06
0.000106132
0.000174394
0.000176972
0.000167608
0.000163162
0.000143474
0.000108025
7.30561e-05
5.51604e-05
5.90014e-05
7.93562e-07
7.94032e-07
7.94546e-07
7.95109e-07
7.95726e-07
7.96404e-07
7.97148e-07
7.97965e-07
7.98863e-07
7.99851e-07
8.00937e-07
8.02135e-07
8.03458e-07
8.04922e-07
8.06561e-07
8.084e-07
8.10475e-07
8.12841e-07
8.15592e-07
8.18907e-07
8.23164e-07
8.29255e-07
8.39498e-07
8.61251e-07
9.1822e-07
1.11853e-06
2.40002e-06
2.17681e-05
6.81924e-05
0.00010531
0.000152834
0.00019285
0.000224125
0.000270784
0.000291072
0.000261374
0.000191621
7.36519e-07
7.36719e-07
7.36943e-07
7.37194e-07
7.37475e-07
7.37792e-07
7.38147e-07
7.38546e-07
7.38995e-07
7.39501e-07
7.40072e-07
7.40717e-07
7.41447e-07
7.42274e-07
7.43212e-07
7.44277e-07
7.45487e-07
7.46867e-07
7.48459e-07
7.5034e-07
7.52685e-07
7.55928e-07
7.61219e-07
7.71817e-07
7.96353e-07
8.59772e-07
1.05481e-06
2.29541e-06
7.19805e-06
1.08965e-05
1.19515e-05
1.57044e-05
2.45139e-05
3.67963e-05
4.73799e-05
6.09144e-05
6.9631e-05
7.14825e-07
7.14973e-07
7.15142e-07
7.15334e-07
7.15553e-07
7.15803e-07
7.16086e-07
7.1641e-07
7.16779e-07
7.17201e-07
7.17685e-07
7.18238e-07
7.18873e-07
7.19601e-07
7.20437e-07
7.21395e-07
7.22496e-07
7.23765e-07
7.25245e-07
7.2701e-07
7.2921e-07
7.32167e-07
7.36625e-07
7.44387e-07
7.59885e-07
7.94009e-07
8.70701e-07
1.03294e-06
1.35139e-06
1.60818e-06
1.9242e-06
2.32552e-06
2.8231e-06
3.52393e-06
4.40136e-06
5.71157e-06
7.51753e-06
7.06256e-07
7.06387e-07
7.06538e-07
7.06712e-07
7.06911e-07
7.07139e-07
7.07401e-07
7.07702e-07
7.08049e-07
7.08448e-07
7.08907e-07
7.09437e-07
7.10047e-07
7.10751e-07
7.11564e-07
7.12502e-07
7.13586e-07
7.14842e-07
7.16312e-07
7.18057e-07
7.20185e-07
7.2289e-07
7.26545e-07
7.31856e-07
7.40158e-07
7.53943e-07
7.78122e-07
8.21539e-07
8.98903e-07
9.92564e-07
1.05138e-06
1.10118e-06
1.17167e-06
1.269e-06
1.40182e-06
1.59502e-06
1.86128e-06
7.03499e-07
7.03624e-07
7.03769e-07
7.03935e-07
7.04127e-07
7.04348e-07
7.04603e-07
7.04897e-07
7.05236e-07
7.05629e-07
7.06082e-07
7.06605e-07
7.07209e-07
7.07909e-07
7.08718e-07
7.09656e-07
7.10743e-07
7.12009e-07
7.13496e-07
7.15267e-07
7.17427e-07
7.20157e-07
7.23769e-07
7.28814e-07
7.36217e-07
7.4736e-07
7.63641e-07
7.8452e-07
8.04899e-07
8.23239e-07
8.46232e-07
8.7369e-07
9.05632e-07
9.44712e-07
9.94215e-07
1.06153e-06
1.15027e-06
7.03507e-07
7.03631e-07
7.03775e-07
7.0394e-07
7.04131e-07
7.04352e-07
7.04607e-07
7.04901e-07
7.05241e-07
7.05634e-07
7.06088e-07
7.06613e-07
7.0722e-07
7.07924e-07
7.08739e-07
7.09685e-07
7.10784e-07
7.12067e-07
7.13575e-07
7.15365e-07
7.1752e-07
7.20156e-07
7.23449e-07
7.27656e-07
7.33143e-07
7.40411e-07
7.50114e-07
7.63045e-07
7.79693e-07
7.98576e-07
8.16933e-07
8.35403e-07
8.57176e-07
8.84407e-07
9.1802e-07
9.61479e-07
1.0143e-06
7.06278e-07
7.06407e-07
7.06554e-07
7.06725e-07
7.06921e-07
7.07148e-07
7.0741e-07
7.07711e-07
7.08058e-07
7.08459e-07
7.0892e-07
7.09453e-07
7.10069e-07
7.10783e-07
7.11608e-07
7.12565e-07
7.13675e-07
7.14971e-07
7.16493e-07
7.18296e-07
7.20457e-07
7.23092e-07
7.26366e-07
7.30511e-07
7.3583e-07
7.42645e-07
7.51152e-07
7.61173e-07
7.72063e-07
7.83535e-07
7.96443e-07
8.11892e-07
8.31004e-07
8.5548e-07
8.86373e-07
9.26876e-07
9.76433e-07
7.14857e-07
7.15001e-07
7.15164e-07
7.15352e-07
7.15568e-07
7.15814e-07
7.16097e-07
7.1642e-07
7.1679e-07
7.17213e-07
7.17698e-07
7.18256e-07
7.18898e-07
7.19637e-07
7.20487e-07
7.21468e-07
7.22603e-07
7.23922e-07
7.25464e-07
7.2728e-07
7.29435e-07
7.32019e-07
7.35143e-07
7.38954e-07
7.43638e-07
7.49421e-07
7.56551e-07
7.65268e-07
7.75785e-07
7.88132e-07
8.02376e-07
8.19013e-07
8.38854e-07
8.63202e-07
8.92316e-07
9.29143e-07
9.70475e-07
7.36548e-07
7.36744e-07
7.36963e-07
7.3721e-07
7.37487e-07
7.378e-07
7.38152e-07
7.3855e-07
7.38998e-07
7.39503e-07
7.40074e-07
7.4072e-07
7.41454e-07
7.42287e-07
7.43234e-07
7.44313e-07
7.45546e-07
7.46962e-07
7.48596e-07
7.50492e-07
7.52711e-07
7.55331e-07
7.5846e-07
7.62236e-07
7.66823e-07
7.7239e-07
7.79071e-07
7.86967e-07
7.96159e-07
8.06815e-07
8.19315e-07
8.34314e-07
8.52529e-07
8.75083e-07
9.02086e-07
9.36952e-07
9.73277e-07
7.93566e-07
7.94033e-07
7.94544e-07
7.95104e-07
7.95718e-07
7.96392e-07
7.97132e-07
7.97945e-07
7.98839e-07
7.99822e-07
8.00904e-07
8.02097e-07
8.03414e-07
8.04869e-07
8.06477e-07
8.08257e-07
8.10232e-07
8.1243e-07
8.14884e-07
8.17635e-07
8.20736e-07
8.24258e-07
8.28288e-07
8.32937e-07
8.38342e-07
8.44667e-07
8.52105e-07
8.60859e-07
8.71143e-07
8.83189e-07
8.97257e-07
9.13717e-07
9.32914e-07
9.55779e-07
9.81305e-07
1.01523e-06
1.04327e-06
1.1311e-06
1.13468e-06
1.13857e-06
1.14278e-06
1.14734e-06
1.15228e-06
1.15763e-06
1.16342e-06
1.16969e-06
1.1765e-06
1.1839e-06
1.19193e-06
1.20066e-06
1.21015e-06
1.22048e-06
1.23176e-06
1.24407e-06
1.25756e-06
1.27235e-06
1.28863e-06
1.30658e-06
1.32644e-06
1.34848e-06
1.373e-06
1.40036e-06
1.43089e-06
1.465e-06
1.50308e-06
1.54557e-06
1.59293e-06
1.64574e-06
1.70473e-06
1.77078e-06
1.84488e-06
1.92811e-06
2.02192e-06
2.12515e-06
1.23036e-06
1.23397e-06
1.23788e-06
1.24211e-06
1.24669e-06
1.25164e-06
1.25699e-06
1.26279e-06
1.26905e-06
1.27584e-06
1.28318e-06
1.29111e-06
1.29967e-06
1.3089e-06
1.31881e-06
1.32945e-06
1.34081e-06
1.35288e-06
1.36558e-06
1.37875e-06
1.39205e-06
1.40486e-06
1.41595e-06
1.42309e-06
1.42319e-06
1.42126e-06
2.46087e-06
4.5131e-05
0.000140791
0.000145172
0.000122059
0.000100433
7.70608e-05
5.57931e-05
3.88359e-05
2.43078e-05
1.79647e-05
7.6633e-07
7.66684e-07
7.67074e-07
7.67504e-07
7.67981e-07
7.6851e-07
7.69096e-07
7.69745e-07
7.70463e-07
7.71259e-07
7.72145e-07
7.73136e-07
7.74249e-07
7.75504e-07
7.76926e-07
7.78547e-07
7.8041e-07
7.82581e-07
7.85171e-07
7.88387e-07
7.92649e-07
7.98901e-07
8.09443e-07
8.30711e-07
8.81659e-07
1.03343e-06
1.65178e-06
8.31477e-06
4.09489e-05
6.36713e-05
7.08221e-05
7.41064e-05
7.80029e-05
7.83678e-05
7.54755e-05
6.87698e-05
5.7845e-05
6.64838e-07
6.64845e-07
6.64861e-07
6.64889e-07
6.64931e-07
6.64991e-07
6.6507e-07
6.65172e-07
6.65302e-07
6.65465e-07
6.65668e-07
6.65919e-07
6.66229e-07
6.66608e-07
6.67069e-07
6.67626e-07
6.68296e-07
6.69106e-07
6.70097e-07
6.7135e-07
6.73044e-07
6.75618e-07
6.80201e-07
6.89753e-07
7.11589e-07
7.65082e-07
9.09276e-07
1.44039e-06
4.05223e-06
7.09103e-06
8.17626e-06
8.77934e-06
1.01574e-05
1.25762e-05
1.55211e-05
1.90232e-05
2.23007e-05
6.2566e-07
6.25591e-07
6.25526e-07
6.25466e-07
6.25415e-07
6.25374e-07
6.25345e-07
6.25332e-07
6.25339e-07
6.25372e-07
6.25438e-07
6.25543e-07
6.25697e-07
6.2591e-07
6.26194e-07
6.26562e-07
6.2703e-07
6.27622e-07
6.28375e-07
6.29362e-07
6.3073e-07
6.32798e-07
6.36296e-07
6.42948e-07
6.56821e-07
6.8723e-07
7.54433e-07
8.91933e-07
1.13443e-06
1.363e-06
1.64732e-06
2.03784e-06
2.41464e-06
2.76521e-06
3.1074e-06
3.4169e-06
3.87487e-06
6.10291e-07
6.10197e-07
6.10105e-07
6.10017e-07
6.09935e-07
6.09861e-07
6.09797e-07
6.09748e-07
6.09717e-07
6.09712e-07
6.09737e-07
6.09799e-07
6.09908e-07
6.10075e-07
6.10311e-07
6.10631e-07
6.11052e-07
6.11597e-07
6.12302e-07
6.13226e-07
6.1447e-07
6.16226e-07
6.18861e-07
6.23078e-07
6.30179e-07
6.42486e-07
6.64026e-07
7.01535e-07
7.66082e-07
8.52107e-07
9.13551e-07
9.58602e-07
1.01937e-06
1.10058e-06
1.20613e-06
1.33984e-06
1.50778e-06
6.05263e-07
6.0516e-07
6.05059e-07
6.04961e-07
6.04868e-07
6.04782e-07
6.04706e-07
6.04645e-07
6.04603e-07
6.04585e-07
6.04598e-07
6.04648e-07
6.04745e-07
6.049e-07
6.05126e-07
6.05438e-07
6.05855e-07
6.06402e-07
6.07117e-07
6.08059e-07
6.09333e-07
6.11116e-07
6.13724e-07
6.17711e-07
6.24007e-07
6.33993e-07
6.49136e-07
6.69402e-07
6.9063e-07
7.09574e-07
7.31511e-07
7.57747e-07
7.8795e-07
8.23926e-07
8.69201e-07
9.30605e-07
1.01415e-06
6.05272e-07
6.05168e-07
6.05066e-07
6.04966e-07
6.04872e-07
6.04786e-07
6.0471e-07
6.04649e-07
6.04608e-07
6.04591e-07
6.04605e-07
6.04656e-07
6.04757e-07
6.04917e-07
6.0515e-07
6.05472e-07
6.05903e-07
6.06471e-07
6.07213e-07
6.08184e-07
6.09466e-07
6.11176e-07
6.13494e-07
6.16684e-07
6.21128e-07
6.27342e-07
6.3597e-07
6.47707e-07
6.62902e-07
6.80352e-07
6.9769e-07
7.15393e-07
7.36689e-07
7.6397e-07
7.9864e-07
8.43787e-07
9.00764e-07
6.10315e-07
6.10218e-07
6.10123e-07
6.10031e-07
6.09946e-07
6.09869e-07
6.09805e-07
6.09755e-07
6.09725e-07
6.0972e-07
6.09747e-07
6.09812e-07
6.09927e-07
6.10103e-07
6.10352e-07
6.10691e-07
6.1114e-07
6.11727e-07
6.1249e-07
6.13482e-07
6.14781e-07
6.16499e-07
6.18809e-07
6.21953e-07
6.26249e-07
6.3205e-07
6.39602e-07
6.48816e-07
6.59158e-07
6.70155e-07
6.82462e-07
6.97323e-07
7.16038e-07
7.40338e-07
7.71632e-07
8.12872e-07
8.64561e-07
6.25695e-07
6.25622e-07
6.25551e-07
6.25487e-07
6.2543e-07
6.25384e-07
6.25352e-07
6.25338e-07
6.25345e-07
6.25378e-07
6.25443e-07
6.2555e-07
6.25708e-07
6.25928e-07
6.26223e-07
6.26607e-07
6.27102e-07
6.27735e-07
6.28542e-07
6.29571e-07
6.30888e-07
6.3258e-07
6.34763e-07
6.3759e-07
6.41257e-07
6.46007e-07
6.52107e-07
6.5981e-07
6.69315e-07
6.80754e-07
6.94243e-07
7.10296e-07
7.29798e-07
7.54005e-07
7.83479e-07
8.2068e-07
8.64279e-07
6.64873e-07
6.64876e-07
6.64886e-07
6.64907e-07
6.64943e-07
6.64995e-07
6.65068e-07
6.65165e-07
6.65291e-07
6.65448e-07
6.65646e-07
6.65891e-07
6.66194e-07
6.66565e-07
6.67015e-07
6.6756e-07
6.6822e-07
6.69019e-07
6.69991e-07
6.71177e-07
6.72635e-07
6.74443e-07
6.76709e-07
6.79576e-07
6.83222e-07
6.87838e-07
6.93617e-07
7.00694e-07
7.09182e-07
7.19265e-07
7.31322e-07
7.46002e-07
7.64013e-07
7.8649e-07
8.13772e-07
8.48676e-07
8.86993e-07
7.66346e-07
7.66692e-07
7.67071e-07
7.67491e-07
7.67956e-07
7.68469e-07
7.69038e-07
7.69668e-07
7.70366e-07
7.71137e-07
7.71991e-07
7.72939e-07
7.73994e-07
7.75167e-07
7.76473e-07
7.7793e-07
7.7956e-07
7.8139e-07
7.83452e-07
7.85786e-07
7.88446e-07
7.915e-07
7.95036e-07
7.99172e-07
8.04054e-07
8.0987e-07
8.16838e-07
8.25192e-07
8.35191e-07
8.47099e-07
8.61206e-07
8.77892e-07
8.97524e-07
9.20975e-07
9.47711e-07
9.82098e-07
1.01426e-06
1.2303e-06
1.23392e-06
1.23785e-06
1.24211e-06
1.24672e-06
1.25171e-06
1.25712e-06
1.26298e-06
1.26933e-06
1.27623e-06
1.28372e-06
1.29186e-06
1.30071e-06
1.31034e-06
1.32083e-06
1.3323e-06
1.34483e-06
1.35857e-06
1.37366e-06
1.39028e-06
1.40864e-06
1.429e-06
1.45162e-06
1.47682e-06
1.50497e-06
1.53641e-06
1.57152e-06
1.61071e-06
1.65437e-06
1.70304e-06
1.75734e-06
1.81806e-06
1.88617e-06
1.96281e-06
2.0492e-06
2.14663e-06
2.25535e-06
1.28524e-06
1.28882e-06
1.29269e-06
1.29689e-06
1.30143e-06
1.30633e-06
1.31164e-06
1.31739e-06
1.32361e-06
1.33034e-06
1.33763e-06
1.34552e-06
1.35403e-06
1.3632e-06
1.37307e-06
1.38366e-06
1.39499e-06
1.40704e-06
1.41976e-06
1.43301e-06
1.44654e-06
1.45984e-06
1.47206e-06
1.48177e-06
1.48744e-06
1.49131e-06
1.58152e-06
7.04077e-06
6.87712e-05
0.000106479
9.2103e-05
6.092e-05
4.12485e-05
2.78891e-05
1.73632e-05
1.06661e-05
7.17119e-06
7.51171e-07
7.51538e-07
7.5194e-07
7.52385e-07
7.52881e-07
7.53432e-07
7.54045e-07
7.54723e-07
7.55473e-07
7.56304e-07
7.5723e-07
7.58269e-07
7.5944e-07
7.60764e-07
7.62268e-07
7.63986e-07
7.65963e-07
7.6827e-07
7.71023e-07
7.74435e-07
7.78923e-07
7.85384e-07
7.95893e-07
8.15657e-07
8.58807e-07
9.68008e-07
1.30965e-06
2.84864e-06
1.38014e-05
2.90276e-05
2.71226e-05
2.30587e-05
1.99842e-05
1.85112e-05
1.79946e-05
1.81178e-05
1.86331e-05
6.22565e-07
6.2256e-07
6.22564e-07
6.2258e-07
6.2261e-07
6.22657e-07
6.22726e-07
6.22817e-07
6.22936e-07
6.23089e-07
6.23282e-07
6.23527e-07
6.23832e-07
6.2421e-07
6.24674e-07
6.25239e-07
6.25924e-07
6.26755e-07
6.27778e-07
6.29074e-07
6.30819e-07
6.33435e-07
6.37952e-07
6.46947e-07
6.66494e-07
7.11036e-07
8.16434e-07
1.07489e-06
1.90219e-06
3.60933e-06
5.09066e-06
6.16168e-06
6.81712e-06
7.52659e-06
8.59086e-06
9.83239e-06
1.08681e-05
5.71655e-07
5.71565e-07
5.71478e-07
5.71396e-07
5.7132e-07
5.71254e-07
5.712e-07
5.71161e-07
5.71141e-07
5.71148e-07
5.71185e-07
5.71262e-07
5.71388e-07
5.71574e-07
5.71831e-07
5.72174e-07
5.72618e-07
5.73187e-07
5.73919e-07
5.74886e-07
5.76231e-07
5.78259e-07
5.8165e-07
5.8794e-07
6.00601e-07
6.27125e-07
6.82709e-07
7.92193e-07
9.66086e-07
1.1385e-06
1.26644e-06
1.45761e-06
1.65668e-06
1.82797e-06
1.98446e-06
2.15758e-06
2.50914e-06
5.51201e-07
5.51082e-07
5.50964e-07
5.50849e-07
5.50738e-07
5.50633e-07
5.50539e-07
5.50457e-07
5.50393e-07
5.50352e-07
5.50342e-07
5.50368e-07
5.5044e-07
5.50569e-07
5.50768e-07
5.5105e-07
5.51433e-07
5.5194e-07
5.52607e-07
5.53493e-07
5.54697e-07
5.56409e-07
5.58984e-07
5.63097e-07
5.69959e-07
5.81638e-07
6.01367e-07
6.33718e-07
6.84603e-07
7.54447e-07
8.17573e-07
8.64437e-07
9.15786e-07
9.78803e-07
1.05871e-06
1.15871e-06
1.29262e-06
5.44297e-07
5.44168e-07
5.44039e-07
5.43912e-07
5.43788e-07
5.4367e-07
5.43561e-07
5.43465e-07
5.43386e-07
5.43331e-07
5.43305e-07
5.43316e-07
5.43372e-07
5.43486e-07
5.43671e-07
5.43941e-07
5.44317e-07
5.44823e-07
5.45497e-07
5.464e-07
5.47633e-07
5.49373e-07
5.51931e-07
5.5584e-07
5.61985e-07
5.71657e-07
5.86254e-07
6.06026e-07
6.27857e-07
6.4733e-07
6.66913e-07
6.89789e-07
7.17132e-07
7.50536e-07
7.93696e-07
8.5315e-07
9.37425e-07
5.44305e-07
5.44175e-07
5.44045e-07
5.43916e-07
5.43792e-07
5.43673e-07
5.43564e-07
5.43469e-07
5.43391e-07
5.43336e-07
5.43311e-07
5.43325e-07
5.43384e-07
5.43503e-07
5.43697e-07
5.43979e-07
5.44371e-07
5.44901e-07
5.45608e-07
5.46548e-07
5.47803e-07
5.49494e-07
5.51806e-07
5.55009e-07
5.59492e-07
5.65769e-07
5.74452e-07
5.86133e-07
6.01036e-07
6.18273e-07
6.36126e-07
6.54891e-07
6.77376e-07
7.06014e-07
7.42594e-07
7.90155e-07
8.51475e-07
5.51223e-07
5.51102e-07
5.5098e-07
5.50861e-07
5.50748e-07
5.50641e-07
5.50545e-07
5.50463e-07
5.50399e-07
5.50359e-07
5.5035e-07
5.5038e-07
5.50456e-07
5.50595e-07
5.50807e-07
5.5111e-07
5.51524e-07
5.52079e-07
5.52812e-07
5.53778e-07
5.55056e-07
5.56762e-07
5.59071e-07
5.62232e-07
5.66573e-07
5.72462e-07
5.80187e-07
5.89743e-07
6.00727e-07
6.12638e-07
6.25886e-07
6.4169e-07
6.61549e-07
6.8727e-07
7.20501e-07
7.64035e-07
8.19489e-07
5.71688e-07
5.71594e-07
5.71502e-07
5.71415e-07
5.71334e-07
5.71263e-07
5.71205e-07
5.71164e-07
5.71143e-07
5.71148e-07
5.71185e-07
5.71263e-07
5.71392e-07
5.71584e-07
5.7185e-07
5.72208e-07
5.72679e-07
5.73291e-07
5.7408e-07
5.75095e-07
5.76406e-07
5.78103e-07
5.80308e-07
5.83184e-07
5.86938e-07
5.91829e-07
5.98148e-07
6.06172e-07
6.16114e-07
6.28134e-07
6.42422e-07
6.59514e-07
6.80322e-07
7.0607e-07
7.3764e-07
7.77263e-07
8.24801e-07
6.22602e-07
6.22594e-07
6.22591e-07
6.226e-07
6.22622e-07
6.22661e-07
6.2272e-07
6.22804e-07
6.22917e-07
6.23062e-07
6.23247e-07
6.23481e-07
6.23774e-07
6.24136e-07
6.2458e-07
6.25122e-07
6.25781e-07
6.26584e-07
6.27563e-07
6.28763e-07
6.30244e-07
6.32085e-07
6.344e-07
6.37342e-07
6.41098e-07
6.45881e-07
6.51898e-07
6.59326e-07
6.68319e-07
6.79085e-07
6.92006e-07
7.07725e-07
7.27066e-07
7.51167e-07
7.80577e-07
8.17697e-07
8.59976e-07
7.51206e-07
7.51564e-07
7.51954e-07
7.52387e-07
7.52864e-07
7.53392e-07
7.53977e-07
7.54626e-07
7.55342e-07
7.56132e-07
7.57002e-07
7.57966e-07
7.59041e-07
7.60241e-07
7.61578e-07
7.63072e-07
7.64746e-07
7.66627e-07
7.68746e-07
7.71144e-07
7.73876e-07
7.77013e-07
7.80649e-07
7.84906e-07
7.89941e-07
7.95957e-07
8.03192e-07
8.1192e-07
8.22434e-07
8.35016e-07
8.49993e-07
8.67764e-07
8.88771e-07
9.13888e-07
9.42814e-07
9.78718e-07
1.01462e-06
1.28518e-06
1.28877e-06
1.29266e-06
1.29687e-06
1.30144e-06
1.30638e-06
1.31173e-06
1.31754e-06
1.32383e-06
1.33065e-06
1.33806e-06
1.34611e-06
1.35486e-06
1.3644e-06
1.37481e-06
1.38618e-06
1.39864e-06
1.4123e-06
1.42732e-06
1.44389e-06
1.46222e-06
1.48256e-06
1.50519e-06
1.53043e-06
1.55864e-06
1.59016e-06
1.62536e-06
1.66466e-06
1.70847e-06
1.75729e-06
1.81179e-06
1.8728e-06
1.94137e-06
2.01868e-06
2.10605e-06
2.20478e-06
2.31605e-06
1.31593e-06
1.31945e-06
1.32326e-06
1.32739e-06
1.33186e-06
1.33669e-06
1.34191e-06
1.34757e-06
1.3537e-06
1.36034e-06
1.36753e-06
1.37531e-06
1.38371e-06
1.39277e-06
1.40253e-06
1.41301e-06
1.42424e-06
1.43621e-06
1.44887e-06
1.46214e-06
1.47581e-06
1.48953e-06
1.5027e-06
1.51447e-06
1.52417e-06
1.53346e-06
1.55489e-06
2.07943e-06
1.14406e-05
3.58332e-05
4.43169e-05
3.71631e-05
2.52783e-05
1.51543e-05
8.69163e-06
5.30301e-06
3.50514e-06
7.4157e-07
7.41965e-07
7.424e-07
7.4288e-07
7.43415e-07
7.44012e-07
7.44674e-07
7.45404e-07
7.4621e-07
7.47102e-07
7.48095e-07
7.49208e-07
7.50463e-07
7.5188e-07
7.53488e-07
7.55321e-07
7.57427e-07
7.59877e-07
7.62788e-07
7.66366e-07
7.71002e-07
7.77503e-07
7.8764e-07
8.05502e-07
8.41088e-07
9.20151e-07
1.1202e-06
1.67501e-06
3.62652e-06
8.40589e-06
1.03761e-05
8.92402e-06
7.39225e-06
6.40231e-06
6.21437e-06
6.72968e-06
7.52377e-06
5.95936e-07
5.95964e-07
5.96003e-07
5.96057e-07
5.96131e-07
5.96226e-07
5.96346e-07
5.96494e-07
5.96675e-07
5.96895e-07
5.97163e-07
5.97488e-07
5.97883e-07
5.9836e-07
5.98933e-07
5.99618e-07
6.00436e-07
6.01415e-07
6.02603e-07
6.04081e-07
6.06021e-07
6.08812e-07
6.13369e-07
6.21838e-07
6.3909e-07
6.75608e-07
7.53289e-07
9.12341e-07
1.20368e-06
1.72819e-06
2.43328e-06
3.25066e-06
3.92597e-06
4.44038e-06
4.85046e-06
5.08685e-06
5.11707e-06
5.36878e-07
5.36819e-07
5.36766e-07
5.36722e-07
5.36688e-07
5.36668e-07
5.36664e-07
5.3668e-07
5.3672e-07
5.36792e-07
5.36902e-07
5.37058e-07
5.37271e-07
5.37552e-07
5.37914e-07
5.3837e-07
5.3894e-07
5.39647e-07
5.40532e-07
5.41664e-07
5.43183e-07
5.45378e-07
5.48863e-07
5.54965e-07
5.66507e-07
5.89251e-07
6.34031e-07
7.1688e-07
8.41733e-07
9.61094e-07
1.02488e-06
1.07789e-06
1.15464e-06
1.2402e-06
1.34544e-06
1.49345e-06
1.73461e-06
5.12549e-07
5.12462e-07
5.12377e-07
5.12298e-07
5.12228e-07
5.12168e-07
5.12122e-07
5.12094e-07
5.12089e-07
5.12112e-07
5.12171e-07
5.12274e-07
5.12431e-07
5.12652e-07
5.12952e-07
5.13345e-07
5.1385e-07
5.1449e-07
5.15304e-07
5.1635e-07
5.17729e-07
5.19625e-07
5.2238e-07
5.26624e-07
5.33454e-07
5.44646e-07
5.62742e-07
5.90699e-07
6.30981e-07
6.82923e-07
7.36032e-07
7.8001e-07
8.23659e-07
8.73197e-07
9.35257e-07
1.01593e-06
1.13059e-06
5.04108e-07
5.04009e-07
5.03913e-07
5.03822e-07
5.03738e-07
5.03664e-07
5.03603e-07
5.0356e-07
5.03539e-07
5.03547e-07
5.03589e-07
5.03675e-07
5.03815e-07
5.04021e-07
5.04305e-07
5.04686e-07
5.05181e-07
5.0582e-07
5.06639e-07
5.07701e-07
5.09106e-07
5.11028e-07
5.13764e-07
5.1782e-07
5.24007e-07
5.33487e-07
5.47507e-07
5.6642e-07
5.87938e-07
6.07588e-07
6.25185e-07
6.44246e-07
6.6794e-07
6.98616e-07
7.40072e-07
7.98691e-07
8.84013e-07
5.04114e-07
5.04015e-07
5.03918e-07
5.03826e-07
5.03741e-07
5.03667e-07
5.03606e-07
5.03563e-07
5.03542e-07