/*--------------------------------*- C++ -*----------------------------------*\
| =========                 |                                                 |
| \\      /  F ield         | OpenFOAM: The Open Source CFD Toolbox           |
|  \\    /   O peration     | Version:  2.3.1                                 |
|   \\  /    A nd           | Web:      www.OpenFOAM.org                      |
|    \\/     M anipulation  |                                                 |
\*---------------------------------------------------------------------------*/
FoamFile
{
    version     2.0;
    format      ascii;
    class       volScalarField;
    location    "10";
    object      k;
}
// * * * * * * * * * * * * * * * * * * * * * * * * * * * * * * * * * * * * * //

dimensions      [0 2 -2 0 0 0 0];

internalField   nonuniform List<scalar> 
37530
(
5.61842e-06
5.64288e-06
5.66929e-06
5.69781e-06
5.72859e-06
5.76179e-06
5.79761e-06
5.83625e-06
5.87793e-06
5.92287e-06
5.97128e-06
6.02336e-06
6.07928e-06
6.1392e-06
6.20319e-06
6.27123e-06
6.34312e-06
6.41838e-06
6.49622e-06
6.57521e-06
6.6519e-06
6.71999e-06
6.77108e-06
6.78167e-06
6.92258e-06
1.98634e-05
0.000142929
0.000249201
0.000254407
0.000242941
0.000252736
0.000256669
0.000236585
0.000216043
0.000213342
0.000216294
0.000224239
7.45285e-06
7.48395e-06
7.51755e-06
7.5538e-06
7.5929e-06
7.63508e-06
7.6806e-06
7.72971e-06
7.78266e-06
7.83972e-06
7.90115e-06
7.96719e-06
8.03805e-06
8.11388e-06
8.19477e-06
8.28068e-06
8.37135e-06
8.46622e-06
8.56388e-06
8.66155e-06
8.75486e-06
8.83599e-06
8.89193e-06
8.90546e-06
8.85373e-06
9.36933e-06
2.8246e-05
8.41326e-05
0.000105663
0.000112948
0.000115497
0.000144773
0.000208673
0.000279119
0.000302614
0.00030034
0.000286396
8.19602e-06
8.22779e-06
8.26209e-06
8.29909e-06
8.33901e-06
8.38209e-06
8.42861e-06
8.47884e-06
8.53302e-06
8.59141e-06
8.65428e-06
8.72191e-06
8.79451e-06
8.87229e-06
8.95538e-06
9.04384e-06
9.13758e-06
9.23621e-06
9.33892e-06
9.44413e-06
9.54902e-06
9.64889e-06
9.73606e-06
9.80462e-06
9.85321e-06
9.87053e-06
1.0685e-05
1.69147e-05
2.52018e-05
2.99323e-05
3.34655e-05
3.88613e-05
4.85939e-05
7.46604e-05
0.000114666
0.000161917
0.000192389
8.47305e-06
8.50506e-06
8.53961e-06
8.5769e-06
8.61713e-06
8.66059e-06
8.70755e-06
8.75827e-06
8.81299e-06
8.87198e-06
8.93553e-06
9.00392e-06
9.07744e-06
9.15633e-06
9.24081e-06
9.33103e-06
9.4271e-06
9.52899e-06
9.63646e-06
9.74891e-06
9.86552e-06
9.98547e-06
1.01085e-05
1.02363e-05
1.03777e-05
1.05599e-05
1.0806e-05
1.14501e-05
1.2619e-05
1.35698e-05
1.42927e-05
1.5109e-05
1.65218e-05
1.9218e-05
2.4783e-05
3.51882e-05
5.11277e-05
8.56164e-06
8.5937e-06
8.62832e-06
8.66569e-06
8.70606e-06
8.74967e-06
8.79679e-06
8.84769e-06
8.90262e-06
8.96185e-06
9.0257e-06
9.09448e-06
9.16852e-06
9.24809e-06
9.33348e-06
9.42497e-06
9.52286e-06
9.62741e-06
9.73876e-06
9.85688e-06
9.98161e-06
1.01126e-05
1.02497e-05
1.03932e-05
1.05454e-05
1.07145e-05
1.09185e-05
1.11841e-05
1.15326e-05
1.1956e-05
1.24257e-05
1.29259e-05
1.34767e-05
1.41148e-05
1.49976e-05
1.63868e-05
1.86805e-05
8.58477e-06
8.61684e-06
8.65148e-06
8.68891e-06
8.72934e-06
8.77303e-06
8.82022e-06
8.87118e-06
8.9262e-06
8.98555e-06
9.04957e-06
9.11861e-06
9.19301e-06
9.27311e-06
9.35925e-06
9.45182e-06
9.55129e-06
9.65811e-06
9.77277e-06
9.89579e-06
1.00279e-05
1.01702e-05
1.03251e-05
1.04963e-05
1.06906e-05
1.09186e-05
1.11959e-05
1.15327e-05
1.19443e-05
1.2415e-05
1.2899e-05
1.33666e-05
1.38305e-05
1.43253e-05
1.49081e-05
1.56173e-05
1.64974e-05
8.5845e-06
8.6166e-06
8.6513e-06
8.68879e-06
8.72929e-06
8.77303e-06
8.82028e-06
8.87132e-06
8.92642e-06
8.98591e-06
9.05012e-06
9.11942e-06
9.19417e-06
9.27476e-06
9.3616e-06
9.45519e-06
9.5561e-06
9.66496e-06
9.78248e-06
9.90945e-06
1.00469e-05
1.0196e-05
1.03584e-05
1.05364e-05
1.07328e-05
1.09519e-05
1.11992e-05
1.1481e-05
1.18016e-05
1.21631e-05
1.2566e-05
1.30117e-05
1.35022e-05
1.4042e-05
1.46642e-05
1.53795e-05
1.62211e-05
8.56087e-06
8.59303e-06
8.62781e-06
8.66538e-06
8.70594e-06
8.74975e-06
8.79706e-06
8.84817e-06
8.90337e-06
8.96299e-06
9.0274e-06
9.09695e-06
9.17203e-06
9.25305e-06
9.34053e-06
9.43506e-06
9.53729e-06
9.64796e-06
9.7679e-06
9.89812e-06
1.00399e-05
1.01949e-05
1.03654e-05
1.05549e-05
1.07677e-05
1.10094e-05
1.1286e-05
1.16025e-05
1.19619e-05
1.23612e-05
1.27924e-05
1.32512e-05
1.37401e-05
1.42753e-05
1.48945e-05
1.56142e-05
1.6455e-05
8.47189e-06
8.50405e-06
8.53885e-06
8.57642e-06
8.61697e-06
8.66075e-06
8.70803e-06
8.75909e-06
8.81426e-06
8.87388e-06
8.93833e-06
9.00797e-06
9.08318e-06
9.16444e-06
9.25233e-06
9.3475e-06
9.45066e-06
9.56262e-06
9.68432e-06
9.81692e-06
9.96181e-06
1.01207e-05
1.02956e-05
1.04889e-05
1.07032e-05
1.09418e-05
1.12079e-05
1.1505e-05
1.1836e-05
1.22033e-05
1.26097e-05
1.30595e-05
1.35557e-05
1.41039e-05
1.47373e-05
1.54665e-05
1.63131e-05
8.19484e-06
8.22677e-06
8.26133e-06
8.29864e-06
8.33891e-06
8.38239e-06
8.42935e-06
8.48007e-06
8.53486e-06
8.5941e-06
8.65817e-06
8.72746e-06
8.80235e-06
8.88335e-06
8.97106e-06
9.06616e-06
9.1694e-06
9.28166e-06
9.40392e-06
9.53744e-06
9.68368e-06
9.84444e-06
1.00219e-05
1.02186e-05
1.04378e-05
1.06829e-05
1.09573e-05
1.12639e-05
1.16048e-05
1.19812e-05
1.23938e-05
1.28444e-05
1.33361e-05
1.38755e-05
1.44813e-05
1.51857e-05
1.59977e-05
7.45211e-06
7.48334e-06
7.51714e-06
7.55366e-06
7.59309e-06
7.63568e-06
7.68169e-06
7.73139e-06
7.78508e-06
7.84316e-06
7.90599e-06
7.97398e-06
8.04753e-06
8.12714e-06
8.2134e-06
8.30701e-06
8.40873e-06
8.51944e-06
8.64019e-06
8.77223e-06
8.91703e-06
9.07632e-06
9.2521e-06
9.44663e-06
9.6623e-06
9.90163e-06
1.01672e-05
1.04613e-05
1.07865e-05
1.11452e-05
1.15399e-05
1.19741e-05
1.24514e-05
1.29753e-05
1.35528e-05
1.41728e-05
1.49202e-05
5.6182e-06
5.64269e-06
5.66919e-06
5.69784e-06
5.72881e-06
5.76228e-06
5.79846e-06
5.83755e-06
5.87982e-06
5.92552e-06
5.97499e-06
6.02852e-06
6.08646e-06
6.1492e-06
6.2172e-06
6.29099e-06
6.37116e-06
6.45841e-06
6.55355e-06
6.65753e-06
6.77146e-06
6.89665e-06
7.03461e-06
7.18704e-06
7.35583e-06
7.54292e-06
7.75023e-06
7.97956e-06
8.2325e-06
8.51063e-06
8.81575e-06
9.15012e-06
9.51669e-06
9.91764e-06
1.03592e-05
1.08299e-05
1.1379e-05
8.86306e-06
8.88414e-06
8.90692e-06
8.93154e-06
8.95812e-06
8.98682e-06
9.01781e-06
9.05129e-06
9.08744e-06
9.12646e-06
9.16856e-06
9.21391e-06
9.26269e-06
9.31503e-06
9.37104e-06
9.43076e-06
9.49413e-06
9.56118e-06
9.6314e-06
9.70359e-06
9.77531e-06
9.84093e-06
9.88288e-06
9.86138e-06
9.71351e-06
1.3035e-05
8.81173e-05
0.000258769
0.000298797
0.000292295
0.000285201
0.000288796
0.000276682
0.000243428
0.000231167
0.000226318
0.000250962
1.27279e-05
1.27406e-05
1.27544e-05
1.27693e-05
1.27854e-05
1.28028e-05
1.28217e-05
1.28421e-05
1.28644e-05
1.28884e-05
1.29144e-05
1.29424e-05
1.29725e-05
1.30048e-05
1.30391e-05
1.30753e-05
1.31133e-05
1.3152e-05
1.31903e-05
1.32261e-05
1.32561e-05
1.32754e-05
1.32785e-05
1.32701e-05
1.3362e-05
1.4456e-05
2.6707e-05
9.39567e-05
0.000175124
0.000233668
0.000286809
0.000327844
0.000416103
0.000579345
0.000610978
0.000511928
0.000416349
1.45239e-05
1.45381e-05
1.45535e-05
1.45701e-05
1.45882e-05
1.46078e-05
1.46291e-05
1.46523e-05
1.46775e-05
1.47048e-05
1.47343e-05
1.47663e-05
1.48009e-05
1.4838e-05
1.48778e-05
1.49202e-05
1.49652e-05
1.50124e-05
1.50611e-05
1.511e-05
1.51575e-05
1.52017e-05
1.52428e-05
1.52843e-05
1.53505e-05
1.5586e-05
1.66591e-05
2.22752e-05
3.34475e-05
3.86785e-05
4.16319e-05
5.42991e-05
7.72022e-05
0.000113842
0.00015574
0.000199642
0.000236482
1.52349e-05
1.52501e-05
1.52665e-05
1.52843e-05
1.53035e-05
1.53245e-05
1.53474e-05
1.53723e-05
1.53994e-05
1.54288e-05
1.54606e-05
1.54952e-05
1.55325e-05
1.55729e-05
1.56164e-05
1.56631e-05
1.57131e-05
1.57665e-05
1.58229e-05
1.58819e-05
1.59432e-05
1.60069e-05
1.60758e-05
1.61616e-05
1.62974e-05
1.65746e-05
1.71576e-05
1.83292e-05
1.96655e-05
2.08329e-05
2.25497e-05
2.41791e-05
2.58425e-05
2.8602e-05
3.28968e-05
3.91455e-05
4.81763e-05
1.54868e-05
1.55023e-05
1.55192e-05
1.55375e-05
1.55573e-05
1.55789e-05
1.56025e-05
1.56281e-05
1.5656e-05
1.56862e-05
1.57191e-05
1.57547e-05
1.57934e-05
1.58353e-05
1.58806e-05
1.59295e-05
1.59823e-05
1.60392e-05
1.61003e-05
1.61656e-05
1.62349e-05
1.63085e-05
1.63871e-05
1.64735e-05
1.6575e-05
1.67069e-05
1.6911e-05
1.72846e-05
1.79469e-05
1.86666e-05
1.90756e-05
1.94232e-05
1.9895e-05
2.04791e-05
2.12026e-05
2.21807e-05
2.34005e-05
1.55605e-05
1.55762e-05
1.55932e-05
1.56117e-05
1.56318e-05
1.56536e-05
1.56774e-05
1.57033e-05
1.57314e-05
1.57619e-05
1.57951e-05
1.58311e-05
1.58703e-05
1.59128e-05
1.59589e-05
1.6009e-05
1.60632e-05
1.61222e-05
1.61861e-05
1.62555e-05
1.63308e-05
1.64134e-05
1.65058e-05
1.66129e-05
1.67444e-05
1.6916e-05
1.71404e-05
1.74243e-05
1.77406e-05
1.80988e-05
1.85462e-05
1.90328e-05
1.95379e-05
2.01009e-05
2.07504e-05
2.15752e-05
2.25707e-05
1.55601e-05
1.55758e-05
1.55929e-05
1.56115e-05
1.56316e-05
1.56535e-05
1.56773e-05
1.57032e-05
1.57313e-05
1.57619e-05
1.57951e-05
1.58313e-05
1.58706e-05
1.59133e-05
1.59598e-05
1.60104e-05
1.60655e-05
1.61256e-05
1.61913e-05
1.62631e-05
1.63418e-05
1.64283e-05
1.65241e-05
1.66314e-05
1.67534e-05
1.68955e-05
1.70666e-05
1.72794e-05
1.75446e-05
1.7849e-05
1.81663e-05
1.85048e-05
1.8899e-05
1.93733e-05
1.99342e-05
2.06399e-05
2.14376e-05
1.54856e-05
1.55013e-05
1.55184e-05
1.55368e-05
1.55569e-05
1.55786e-05
1.56023e-05
1.5628e-05
1.56559e-05
1.56863e-05
1.57194e-05
1.57554e-05
1.57945e-05
1.58371e-05
1.58835e-05
1.59343e-05
1.59898e-05
1.60506e-05
1.61173e-05
1.61907e-05
1.62719e-05
1.63621e-05
1.64636e-05
1.65794e-05
1.67136e-05
1.68713e-05
1.70573e-05
1.72745e-05
1.75222e-05
1.78026e-05
1.81245e-05
1.84938e-05
1.89182e-05
1.94164e-05
2.00004e-05
2.07224e-05
2.15505e-05
1.52332e-05
1.52486e-05
1.52653e-05
1.52834e-05
1.53029e-05
1.53241e-05
1.53472e-05
1.53722e-05
1.53994e-05
1.54291e-05
1.54613e-05
1.54964e-05
1.55346e-05
1.55763e-05
1.56217e-05
1.56715e-05
1.57261e-05
1.57861e-05
1.58522e-05
1.59253e-05
1.60065e-05
1.60971e-05
1.61989e-05
1.63141e-05
1.64453e-05
1.65959e-05
1.67696e-05
1.69706e-05
1.72023e-05
1.7467e-05
1.77676e-05
1.8112e-05
1.8511e-05
1.89815e-05
1.95237e-05
2.01942e-05
2.08899e-05
1.4522e-05
1.45365e-05
1.45522e-05
1.45692e-05
1.45875e-05
1.46074e-05
1.4629e-05
1.46524e-05
1.46778e-05
1.47055e-05
1.47357e-05
1.47686e-05
1.48043e-05
1.48433e-05
1.48859e-05
1.49327e-05
1.4984e-05
1.50406e-05
1.5103e-05
1.51722e-05
1.52494e-05
1.53359e-05
1.54336e-05
1.55447e-05
1.56718e-05
1.58178e-05
1.59856e-05
1.61773e-05
1.63953e-05
1.66423e-05
1.69232e-05
1.72456e-05
1.76172e-05
1.80522e-05
1.8547e-05
1.91583e-05
1.97609e-05
1.27266e-05
1.27395e-05
1.27535e-05
1.27687e-05
1.27851e-05
1.28028e-05
1.2822e-05
1.28428e-05
1.28653e-05
1.28898e-05
1.29166e-05
1.29456e-05
1.29772e-05
1.30116e-05
1.30492e-05
1.30904e-05
1.31355e-05
1.31853e-05
1.32401e-05
1.33009e-05
1.33687e-05
1.34445e-05
1.35298e-05
1.36261e-05
1.37352e-05
1.38589e-05
1.39989e-05
1.4157e-05
1.43351e-05
1.45352e-05
1.476e-05
1.50142e-05
1.53013e-05
1.56331e-05
1.59917e-05
1.64603e-05
1.68109e-05
8.86281e-06
8.88395e-06
8.90685e-06
8.93161e-06
8.95837e-06
8.98732e-06
9.01863e-06
9.05248e-06
9.08909e-06
9.12874e-06
9.17168e-06
9.21821e-06
9.2686e-06
9.32322e-06
9.38249e-06
9.44687e-06
9.51691e-06
9.5932e-06
9.67645e-06
9.7675e-06
9.86729e-06
9.97695e-06
1.00978e-05
1.02312e-05
1.03789e-05
1.05425e-05
1.07238e-05
1.09246e-05
1.11465e-05
1.13915e-05
1.16617e-05
1.19597e-05
1.22887e-05
1.26516e-05
1.30523e-05
1.34929e-05
1.39767e-05
1.00264e-05
1.00474e-05
1.00703e-05
1.00949e-05
1.01215e-05
1.01502e-05
1.01813e-05
1.02148e-05
1.02509e-05
1.029e-05
1.03321e-05
1.03775e-05
1.04262e-05
1.04786e-05
1.05347e-05
1.05948e-05
1.06588e-05
1.07264e-05
1.07973e-05
1.08702e-05
1.0943e-05
1.10112e-05
1.10658e-05
1.10871e-05
1.10423e-05
1.14363e-05
3.69888e-05
0.000207578
0.000288243
0.000290998
0.000280643
0.000275669
0.00025297
0.00020937
0.000161312
0.000133721
0.00013986
1.54761e-05
1.54863e-05
1.54973e-05
1.55094e-05
1.55224e-05
1.55366e-05
1.5552e-05
1.55688e-05
1.55871e-05
1.56071e-05
1.56287e-05
1.56522e-05
1.56775e-05
1.57045e-05
1.57332e-05
1.57633e-05
1.57943e-05
1.58254e-05
1.58553e-05
1.58816e-05
1.59008e-05
1.59081e-05
1.59019e-05
1.59082e-05
1.60734e-05
1.72844e-05
2.4078e-05
6.71721e-05
0.000144139
0.000203925
0.000273204
0.000327062
0.00036469
0.000417918
0.000449104
0.000423357
0.0003486
1.76909e-05
1.77021e-05
1.77143e-05
1.77276e-05
1.77421e-05
1.77579e-05
1.77751e-05
1.77941e-05
1.78147e-05
1.78373e-05
1.7862e-05
1.78888e-05
1.79179e-05
1.79494e-05
1.79833e-05
1.80196e-05
1.80582e-05
1.80986e-05
1.814e-05
1.81815e-05
1.82215e-05
1.82599e-05
1.83022e-05
1.83732e-05
1.85504e-05
1.9079e-05
2.06894e-05
2.52038e-05
3.51195e-05
4.15243e-05
4.31639e-05
4.90977e-05
6.26823e-05
8.10121e-05
9.71624e-05
0.000120198
0.000142402
1.85956e-05
1.86077e-05
1.86209e-05
1.86354e-05
1.86511e-05
1.86684e-05
1.86873e-05
1.87081e-05
1.87308e-05
1.87556e-05
1.87828e-05
1.88125e-05
1.88448e-05
1.888e-05
1.89183e-05
1.89597e-05
1.90043e-05
1.90521e-05
1.91029e-05
1.91566e-05
1.92133e-05
1.9275e-05
1.93492e-05
1.9459e-05
1.96681e-05
2.01402e-05
2.11873e-05
2.32068e-05
2.52982e-05
2.70572e-05
3.0329e-05
3.38706e-05
3.69976e-05
4.01091e-05
4.30893e-05
4.57839e-05
4.82398e-05
1.89411e-05
1.89537e-05
1.89675e-05
1.89826e-05
1.8999e-05
1.90171e-05
1.90369e-05
1.90586e-05
1.90824e-05
1.91084e-05
1.91369e-05
1.91682e-05
1.92023e-05
1.92397e-05
1.92804e-05
1.93249e-05
1.93733e-05
1.9426e-05
1.94831e-05
1.95448e-05
1.96117e-05
1.9685e-05
1.9768e-05
1.98684e-05
2.00036e-05
2.02096e-05
2.0573e-05
2.12306e-05
2.23481e-05
2.3608e-05
2.43168e-05
2.48498e-05
2.55995e-05
2.65661e-05
2.77728e-05
2.92999e-05
3.11441e-05
1.90513e-05
1.90641e-05
1.90782e-05
1.90935e-05
1.91103e-05
1.91287e-05
1.91489e-05
1.91709e-05
1.91951e-05
1.92217e-05
1.92507e-05
1.92826e-05
1.93176e-05
1.9356e-05
1.9398e-05
1.94441e-05
1.94947e-05
1.95503e-05
1.96114e-05
1.96788e-05
1.97537e-05
1.98387e-05
1.99387e-05
2.0063e-05
2.02288e-05
2.04629e-05
2.07903e-05
2.12242e-05
2.17005e-05
2.22014e-05
2.28222e-05
2.35072e-05
2.42302e-05
2.504e-05
2.59876e-05
2.71901e-05
2.87068e-05
1.9051e-05
1.90639e-05
1.9078e-05
1.90933e-05
1.91102e-05
1.91286e-05
1.91488e-05
1.91709e-05
1.91951e-05
1.92217e-05
1.92509e-05
1.92829e-05
1.93181e-05
1.93567e-05
1.93992e-05
1.9446e-05
1.94977e-05
1.95548e-05
1.96181e-05
1.96886e-05
1.97675e-05
1.98567e-05
1.9959e-05
2.00785e-05
2.02219e-05
2.03995e-05
2.06253e-05
2.09189e-05
2.12881e-05
2.17131e-05
2.21464e-05
2.26041e-05
2.31493e-05
2.38243e-05
2.4652e-05
2.56994e-05
2.69615e-05
1.89402e-05
1.89529e-05
1.89669e-05
1.89821e-05
1.89987e-05
1.90169e-05
1.90368e-05
1.90586e-05
1.90825e-05
1.91088e-05
1.91376e-05
1.91692e-05
1.9204e-05
1.92424e-05
1.92846e-05
1.93314e-05
1.93832e-05
1.94409e-05
1.95052e-05
1.95773e-05
1.96588e-05
1.97521e-05
1.98605e-05
1.99892e-05
2.01448e-05
2.03351e-05
2.05675e-05
2.08438e-05
2.11589e-05
2.15116e-05
2.19146e-05
2.23822e-05
2.29329e-05
2.35988e-05
2.4406e-05
2.54194e-05
2.66329e-05
1.85942e-05
1.86065e-05
1.862e-05
1.86347e-05
1.86507e-05
1.86682e-05
1.86873e-05
1.87082e-05
1.87311e-05
1.87563e-05
1.8784e-05
1.88144e-05
1.88479e-05
1.88848e-05
1.89255e-05
1.89708e-05
1.90211e-05
1.90772e-05
1.91401e-05
1.9211e-05
1.92915e-05
1.93836e-05
1.949e-05
1.96141e-05
1.97599e-05
1.99327e-05
2.01381e-05
2.03819e-05
2.06684e-05
2.09996e-05
2.13794e-05
2.18205e-05
2.23411e-05
2.29662e-05
2.37052e-05
2.46137e-05
2.56285e-05
1.76895e-05
1.77008e-05
1.77133e-05
1.77269e-05
1.77416e-05
1.77577e-05
1.77753e-05
1.77945e-05
1.78155e-05
1.78386e-05
1.78639e-05
1.78918e-05
1.79224e-05
1.79562e-05
1.79936e-05
1.80351e-05
1.80814e-05
1.81331e-05
1.81912e-05
1.82568e-05
1.83315e-05
1.84172e-05
1.85166e-05
1.86327e-05
1.87694e-05
1.89307e-05
1.91203e-05
1.93412e-05
1.95956e-05
1.98871e-05
2.02225e-05
2.06139e-05
2.10745e-05
2.16251e-05
2.2268e-05
2.30625e-05
2.38962e-05
1.54749e-05
1.54853e-05
1.54966e-05
1.55089e-05
1.55223e-05
1.55368e-05
1.55526e-05
1.55698e-05
1.55885e-05
1.5609e-05
1.56316e-05
1.56563e-05
1.56833e-05
1.5713e-05
1.57458e-05
1.57821e-05
1.58224e-05
1.58674e-05
1.59177e-05
1.59744e-05
1.60387e-05
1.61121e-05
1.61963e-05
1.62935e-05
1.64061e-05
1.65364e-05
1.66871e-05
1.68604e-05
1.7059e-05
1.72857e-05
1.75444e-05
1.78417e-05
1.81839e-05
1.85854e-05
1.90319e-05
1.96053e-05
2.00872e-05
1.00261e-05
1.00473e-05
1.00703e-05
1.00951e-05
1.01219e-05
1.01509e-05
1.01823e-05
1.02162e-05
1.02529e-05
1.02927e-05
1.03358e-05
1.03825e-05
1.04332e-05
1.04881e-05
1.05477e-05
1.06126e-05
1.06832e-05
1.07603e-05
1.08446e-05
1.09369e-05
1.10382e-05
1.11498e-05
1.1273e-05
1.14093e-05
1.15604e-05
1.17279e-05
1.19136e-05
1.21192e-05
1.23466e-05
1.25976e-05
1.28745e-05
1.31804e-05
1.35187e-05
1.38934e-05
1.43082e-05
1.47687e-05
1.52672e-05
1.06045e-05
1.06252e-05
1.06477e-05
1.06719e-05
1.06981e-05
1.07264e-05
1.0757e-05
1.079e-05
1.08257e-05
1.08643e-05
1.09059e-05
1.09509e-05
1.09992e-05
1.10512e-05
1.1107e-05
1.11666e-05
1.12301e-05
1.12974e-05
1.1368e-05
1.1441e-05
1.15145e-05
1.15849e-05
1.16458e-05
1.16848e-05
1.16851e-05
1.1675e-05
1.69006e-05
0.000117655
0.00024998
0.000254983
0.000227126
0.000199455
0.00016715
0.000134776
0.000105854
7.74483e-05
6.32897e-05
1.70457e-05
1.70543e-05
1.70638e-05
1.70741e-05
1.70853e-05
1.70975e-05
1.71108e-05
1.71253e-05
1.71413e-05
1.71588e-05
1.71779e-05
1.71985e-05
1.72209e-05
1.72448e-05
1.72702e-05
1.72969e-05
1.73244e-05
1.73519e-05
1.73781e-05
1.74007e-05
1.74164e-05
1.74218e-05
1.74172e-05
1.7429e-05
1.75836e-05
1.85245e-05
2.29078e-05
4.42404e-05
0.000104482
0.000146595
0.000169025
0.000182984
0.00018918
0.00018616
0.000179107
0.000167483
0.000152892
1.95127e-05
1.9522e-05
1.95323e-05
1.95435e-05
1.95558e-05
1.95694e-05
1.95842e-05
1.96006e-05
1.96186e-05
1.96385e-05
1.96603e-05
1.96842e-05
1.97103e-05
1.97387e-05
1.97695e-05
1.98027e-05
1.98381e-05
1.98754e-05
1.99138e-05
1.99526e-05
1.9991e-05
2.00304e-05
2.00801e-05
2.01739e-05
2.04053e-05
2.10249e-05
2.26816e-05
2.63772e-05
3.38509e-05
4.13559e-05
4.46229e-05
4.63912e-05
4.92308e-05
5.32766e-05
5.80304e-05
6.41229e-05
7.13921e-05
2.05377e-05
2.05479e-05
2.05592e-05
2.05715e-05
2.05851e-05
2.06001e-05
2.06166e-05
2.06348e-05
2.06549e-05
2.06771e-05
2.07015e-05
2.07284e-05
2.0758e-05
2.07905e-05
2.0826e-05
2.08647e-05
2.09068e-05
2.09522e-05
2.1001e-05
2.10531e-05
2.11096e-05
2.11739e-05
2.12567e-05
2.13878e-05
2.16438e-05
2.22068e-05
2.34347e-05
2.57971e-05
2.86478e-05
3.07521e-05
3.43197e-05
3.89305e-05
4.26201e-05
4.50947e-05
4.65618e-05
4.71722e-05
4.78826e-05
2.09494e-05
2.09602e-05
2.0972e-05
2.09851e-05
2.09995e-05
2.10153e-05
2.10328e-05
2.10521e-05
2.10735e-05
2.1097e-05
2.1123e-05
2.11518e-05
2.11835e-05
2.12185e-05
2.1257e-05
2.12994e-05
2.13461e-05
2.13972e-05
2.14533e-05
2.15149e-05
2.1583e-05
2.166e-05
2.17516e-05
2.18698e-05
2.20392e-05
2.23064e-05
2.27677e-05
2.35795e-05
2.48664e-05
2.64695e-05
2.7546e-05
2.82843e-05
2.9273e-05
3.0557e-05
3.21296e-05
3.40118e-05
3.62284e-05
2.10887e-05
2.10998e-05
2.11119e-05
2.11252e-05
2.114e-05
2.11562e-05
2.11741e-05
2.11939e-05
2.12158e-05
2.124e-05
2.12668e-05
2.12964e-05
2.13291e-05
2.13654e-05
2.14056e-05
2.14501e-05
2.14995e-05
2.15542e-05
2.16152e-05
2.16835e-05
2.1761e-05
2.18512e-05
2.19612e-05
2.21034e-05
2.22999e-05
2.25846e-05
2.299e-05
2.35341e-05
2.41413e-05
2.47457e-05
2.54536e-05
2.62491e-05
2.70999e-05
2.8051e-05
2.91807e-05
3.06337e-05
3.25511e-05
2.10885e-05
2.10995e-05
2.11117e-05
2.11251e-05
2.11399e-05
2.11561e-05
2.11741e-05
2.11939e-05
2.12159e-05
2.12401e-05
2.1267e-05
2.12968e-05
2.13298e-05
2.13665e-05
2.14072e-05
2.14525e-05
2.15031e-05
2.15598e-05
2.16233e-05
2.16951e-05
2.17771e-05
2.18718e-05
2.19833e-05
2.21178e-05
2.22846e-05
2.24979e-05
2.27751e-05
2.31373e-05
2.35897e-05
2.41106e-05
2.46468e-05
2.52156e-05
2.58956e-05
2.67425e-05
2.77913e-05
2.91122e-05
3.07414e-05
2.09488e-05
2.09596e-05
2.09716e-05
2.09848e-05
2.09992e-05
2.10152e-05
2.10328e-05
2.10523e-05
2.10738e-05
2.10976e-05
2.1124e-05
2.11533e-05
2.11858e-05
2.1222e-05
2.12623e-05
2.13075e-05
2.13581e-05
2.14151e-05
2.14795e-05
2.1553e-05
2.16374e-05
2.17361e-05
2.18534e-05
2.19961e-05
2.21728e-05
2.23933e-05
2.26666e-05
2.29946e-05
2.33693e-05
2.37847e-05
2.42537e-05
2.47997e-05
2.5452e-05
2.62525e-05
2.72392e-05
2.84823e-05
3.00014e-05
2.05367e-05
2.05471e-05
2.05585e-05
2.05711e-05
2.05848e-05
2.06e-05
2.06167e-05
2.06352e-05
2.06556e-05
2.06781e-05
2.07032e-05
2.0731e-05
2.07619e-05
2.07963e-05
2.08348e-05
2.0878e-05
2.09266e-05
2.09815e-05
2.10439e-05
2.11153e-05
2.11977e-05
2.12937e-05
2.14068e-05
2.15413e-05
2.17026e-05
2.18973e-05
2.21327e-05
2.24156e-05
2.27511e-05
2.31411e-05
2.35913e-05
2.41166e-05
2.47404e-05
2.54929e-05
2.63914e-05
2.74892e-05
2.87547e-05
1.95116e-05
1.95211e-05
1.95315e-05
1.9543e-05
1.95556e-05
1.95694e-05
1.95845e-05
1.96013e-05
1.96197e-05
1.96401e-05
1.96628e-05
1.96879e-05
1.97157e-05
1.97468e-05
1.97815e-05
1.98205e-05
1.98644e-05
1.99141e-05
1.99707e-05
2.00356e-05
2.01106e-05
2.0198e-05
2.03011e-05
2.04236e-05
2.05702e-05
2.07459e-05
2.0955e-05
2.12011e-05
2.14868e-05
2.18158e-05
2.21968e-05
2.26444e-05
2.31766e-05
2.38176e-05
2.4576e-05
2.55059e-05
2.65234e-05
1.70447e-05
1.70535e-05
1.70632e-05
1.70738e-05
1.70854e-05
1.7098e-05
1.71118e-05
1.71269e-05
1.71434e-05
1.71617e-05
1.71819e-05
1.72041e-05
1.72287e-05
1.72559e-05
1.72862e-05
1.732e-05
1.73578e-05
1.74005e-05
1.74487e-05
1.75037e-05
1.75667e-05
1.76396e-05
1.77242e-05
1.78232e-05
1.79391e-05
1.8075e-05
1.82339e-05
1.8419e-05
1.86332e-05
1.88799e-05
1.91641e-05
1.94933e-05
1.98756e-05
2.03264e-05
2.08369e-05
2.14751e-05
2.20731e-05
1.06042e-05
1.0625e-05
1.06475e-05
1.06719e-05
1.06983e-05
1.07268e-05
1.07577e-05
1.07911e-05
1.08273e-05
1.08665e-05
1.0909e-05
1.09551e-05
1.10051e-05
1.10593e-05
1.11183e-05
1.11826e-05
1.12526e-05
1.13291e-05
1.14129e-05
1.15048e-05
1.16059e-05
1.17175e-05
1.18408e-05
1.19775e-05
1.21292e-05
1.22976e-05
1.24844e-05
1.26911e-05
1.29195e-05
1.31716e-05
1.34502e-05
1.37583e-05
1.40999e-05
1.44793e-05
1.49012e-05
1.53699e-05
1.58846e-05
1.09176e-05
1.09378e-05
1.09598e-05
1.09835e-05
1.10091e-05
1.10367e-05
1.10666e-05
1.10989e-05
1.11338e-05
1.11716e-05
1.12124e-05
1.12564e-05
1.13038e-05
1.13548e-05
1.14096e-05
1.14682e-05
1.15307e-05
1.1597e-05
1.16668e-05
1.17393e-05
1.1813e-05
1.18853e-05
1.19515e-05
1.20039e-05
1.20345e-05
1.20554e-05
1.25434e-05
3.41327e-05
0.000155383
0.000207442
0.000188193
0.000142846
0.000110173
8.48721e-05
6.1882e-05
4.47229e-05
3.43214e-05
1.79799e-05
1.79872e-05
1.79953e-05
1.80042e-05
1.80139e-05
1.80245e-05
1.8036e-05
1.80488e-05
1.80629e-05
1.80784e-05
1.80954e-05
1.81139e-05
1.8134e-05
1.81555e-05
1.81785e-05
1.82028e-05
1.82278e-05
1.8253e-05
1.82769e-05
1.82978e-05
1.8313e-05
1.83199e-05
1.83201e-05
1.83363e-05
1.84631e-05
1.90884e-05
2.17209e-05
3.05492e-05
5.9079e-05
9.12737e-05
9.42058e-05
8.8672e-05
8.58816e-05
8.34435e-05
8.1762e-05
8.2428e-05
8.4942e-05
2.0633e-05
2.0641e-05
2.06498e-05
2.06596e-05
2.06703e-05
2.06822e-05
2.06953e-05
2.07099e-05
2.0726e-05
2.07439e-05
2.07637e-05
2.07856e-05
2.08097e-05
2.0836e-05
2.08648e-05
2.0896e-05
2.09295e-05
2.09651e-05
2.10022e-05
2.10403e-05
2.10793e-05
2.11219e-05
2.11793e-05
2.12878e-05
2.154e-05
2.21555e-05
2.36117e-05
2.66227e-05
3.10566e-05
3.78388e-05
4.58915e-05
5.15451e-05
5.46213e-05
5.7747e-05
6.15075e-05
6.599e-05
7.01396e-05
2.17484e-05
2.17572e-05
2.1767e-05
2.17779e-05
2.17899e-05
2.18033e-05
2.18181e-05
2.18345e-05
2.18528e-05
2.18732e-05
2.18958e-05
2.19209e-05
2.19486e-05
2.19793e-05
2.20132e-05
2.20505e-05
2.20912e-05
2.21356e-05
2.21837e-05
2.2236e-05
2.2294e-05
2.23622e-05
2.24532e-05
2.25987e-05
2.28752e-05
2.3453e-05
2.46547e-05
2.6899e-05
2.9948e-05
3.21044e-05
3.39991e-05
3.67145e-05
3.91387e-05
4.07979e-05
4.1909e-05
4.28937e-05
4.4971e-05
2.22118e-05
2.22213e-05
2.22317e-05
2.22433e-05
2.22562e-05
2.22705e-05
2.22863e-05
2.2304e-05
2.23237e-05
2.23456e-05
2.23699e-05
2.23971e-05
2.24272e-05
2.24608e-05
2.24981e-05
2.25395e-05
2.25854e-05
2.26361e-05
2.26924e-05
2.2755e-05
2.28255e-05
2.29075e-05
2.30081e-05
2.31424e-05
2.33388e-05
2.36479e-05
2.41576e-05
2.49979e-05
2.62798e-05
2.78854e-05
2.92855e-05
3.02962e-05
3.13774e-05
3.26692e-05
3.42263e-05
3.60984e-05
3.84428e-05
2.23751e-05
2.23848e-05
2.23955e-05
2.24075e-05
2.24207e-05
2.24354e-05
2.24518e-05
2.24701e-05
2.24904e-05
2.2513e-05
2.25382e-05
2.25664e-05
2.25978e-05
2.26329e-05
2.26721e-05
2.27159e-05
2.27649e-05
2.28198e-05
2.28815e-05
2.29515e-05
2.30322e-05
2.31281e-05
2.32473e-05
2.34043e-05
2.36238e-05
2.39422e-05
2.43955e-05
2.50023e-05
2.5695e-05
2.63582e-05
2.70535e-05
2.78352e-05
2.87117e-05
2.97269e-05
3.09757e-05
3.26192e-05
3.48562e-05
2.23749e-05
2.23847e-05
2.23954e-05
2.24074e-05
2.24207e-05
2.24354e-05
2.24518e-05
2.24701e-05
2.24905e-05
2.25132e-05
2.25385e-05
2.25669e-05
2.25986e-05
2.26341e-05
2.26739e-05
2.27187e-05
2.27691e-05
2.2826e-05
2.28906e-05
2.29644e-05
2.30498e-05
2.31502e-05
2.32706e-05
2.34187e-05
2.36058e-05
2.38484e-05
2.41656e-05
2.45772e-05
2.5086e-05
2.56707e-05
2.6286e-05
2.6945e-05
2.77267e-05
2.86955e-05
2.98986e-05
3.1412e-05
3.33085e-05
2.22114e-05
2.22209e-05
2.22314e-05
2.22431e-05
2.22561e-05
2.22705e-05
2.22865e-05
2.23043e-05
2.23241e-05
2.23463e-05
2.23711e-05
2.23989e-05
2.243e-05
2.24649e-05
2.25042e-05
2.25486e-05
2.25989e-05
2.2656e-05
2.27213e-05
2.27965e-05
2.28842e-05
2.29881e-05
2.31134e-05
2.3268e-05
2.34618e-05
2.37058e-05
2.40105e-05
2.43782e-05
2.48e-05
2.52659e-05
2.57864e-05
2.63916e-05
2.71212e-05
2.80243e-05
2.91478e-05
3.05642e-05
3.23121e-05
2.17477e-05
2.17566e-05
2.17666e-05
2.17776e-05
2.17898e-05
2.18033e-05
2.18183e-05
2.1835e-05
2.18537e-05
2.18745e-05
2.18978e-05
2.19238e-05
2.19531e-05
2.1986e-05
2.20231e-05
2.20651e-05
2.21129e-05
2.21674e-05
2.223e-05
2.23024e-05
2.2387e-05
2.24868e-05
2.26059e-05
2.27492e-05
2.29232e-05
2.31356e-05
2.33946e-05
2.3708e-05
2.40815e-05
2.4518e-05
2.50243e-05
2.56167e-05
2.63217e-05
2.71728e-05
2.81937e-05
2.94349e-05
3.08889e-05
2.06321e-05
2.06402e-05
2.06492e-05
2.06592e-05
2.06701e-05
2.06823e-05
2.06957e-05
2.07106e-05
2.07273e-05
2.07458e-05
2.07665e-05
2.07897e-05
2.08157e-05
2.08449e-05
2.08778e-05
2.09151e-05
2.09576e-05
2.1006e-05
2.10618e-05
2.11264e-05
2.12019e-05
2.1291e-05
2.1397e-05
2.15243e-05
2.16783e-05
2.18643e-05
2.20876e-05
2.23522e-05
2.26612e-05
2.30191e-05
2.34352e-05
2.39263e-05
2.45132e-05
2.52224e-05
2.6067e-05
2.70944e-05
2.82472e-05
1.79788e-05
1.79863e-05
1.79947e-05
1.80038e-05
1.80139e-05
1.80249e-05
1.80371e-05
1.80505e-05
1.80653e-05
1.80817e-05
1.81e-05
1.81204e-05
1.8143e-05
1.81682e-05
1.81965e-05
1.82282e-05
1.82641e-05
1.83047e-05
1.83511e-05
1.84044e-05
1.8466e-05
1.85379e-05
1.86221e-05
1.87213e-05
1.88385e-05
1.8977e-05
1.91401e-05
1.93314e-05
1.95544e-05
1.98133e-05
2.01134e-05
2.04632e-05
2.08718e-05
2.13546e-05
2.19078e-05
2.2585e-05
2.32671e-05
1.09173e-05
1.09376e-05
1.09596e-05
1.09834e-05
1.10091e-05
1.1037e-05
1.10671e-05
1.10998e-05
1.11351e-05
1.11733e-05
1.12148e-05
1.12597e-05
1.13085e-05
1.13615e-05
1.14192e-05
1.14821e-05
1.15508e-05
1.16259e-05
1.17083e-05
1.17987e-05
1.18984e-05
1.20085e-05
1.21304e-05
1.22657e-05
1.2416e-05
1.25828e-05
1.27679e-05
1.2973e-05
1.31996e-05
1.345e-05
1.37266e-05
1.40331e-05
1.43737e-05
1.47529e-05
1.51756e-05
1.56462e-05
1.61684e-05
1.10907e-05
1.11105e-05
1.11319e-05
1.1155e-05
1.11801e-05
1.12071e-05
1.12363e-05
1.12678e-05
1.1302e-05
1.13389e-05
1.13789e-05
1.1422e-05
1.14685e-05
1.15185e-05
1.15722e-05
1.16298e-05
1.16914e-05
1.17568e-05
1.18258e-05
1.18979e-05
1.19719e-05
1.2046e-05
1.21169e-05
1.218e-05
1.22319e-05
1.22816e-05
1.23965e-05
1.50766e-05
4.70622e-05
0.0001005
0.000115643
0.00010279
7.9483e-05
5.65096e-05
3.90108e-05
2.80665e-05
2.13023e-05
1.85389e-05
1.85453e-05
1.85522e-05
1.85599e-05
1.85683e-05
1.85775e-05
1.85876e-05
1.85989e-05
1.86114e-05
1.86252e-05
1.86406e-05
1.86573e-05
1.86755e-05
1.86951e-05
1.87162e-05
1.87385e-05
1.87617e-05
1.87851e-05
1.88078e-05
1.8828e-05
1.88439e-05
1.88539e-05
1.88601e-05
1.88811e-05
1.89835e-05
1.93958e-05
2.08716e-05
2.50938e-05
3.47148e-05
4.92296e-05
5.40383e-05
5.22824e-05
5.03013e-05
4.9397e-05
5.08434e-05
5.48404e-05
5.92807e-05
2.13369e-05
2.13438e-05
2.13515e-05
2.13601e-05
2.13696e-05
2.13801e-05
2.13919e-05
2.1405e-05
2.14197e-05
2.14361e-05
2.14543e-05
2.14746e-05
2.14971e-05
2.15219e-05
2.15492e-05
2.15789e-05
2.16112e-05
2.16458e-05
2.16823e-05
2.17206e-05
2.17612e-05
2.18075e-05
2.18714e-05
2.19875e-05
2.2239e-05
2.28044e-05
2.40208e-05
2.63315e-05
2.94527e-05
3.29872e-05
3.89146e-05
4.61915e-05
5.20226e-05
5.56994e-05
5.82557e-05
5.98626e-05
5.99509e-05
2.25256e-05
2.25334e-05
2.25421e-05
2.25518e-05
2.25626e-05
2.25747e-05
2.25882e-05
2.26033e-05
2.26203e-05
2.26392e-05
2.26605e-05
2.26842e-05
2.27106e-05
2.27401e-05
2.27728e-05
2.2809e-05
2.2849e-05
2.2893e-05
2.29411e-05
2.29943e-05
2.30544e-05
2.31267e-05
2.32242e-05
2.33779e-05
2.36571e-05
2.42054e-05
2.52819e-05
2.72041e-05
2.98594e-05
3.20516e-05
3.31087e-05
3.3951e-05
3.50462e-05
3.61976e-05
3.75404e-05
3.95451e-05
4.29858e-05
2.30314e-05
2.30398e-05
2.30492e-05
2.30597e-05
2.30714e-05
2.30845e-05
2.30991e-05
2.31155e-05
2.31339e-05
2.31546e-05
2.31777e-05
2.32036e-05
2.32327e-05
2.32653e-05
2.33017e-05
2.33425e-05
2.3388e-05
2.34388e-05
2.34956e-05
2.35597e-05
2.3633e-05
2.37198e-05
2.38285e-05
2.39755e-05
2.41906e-05
2.4523e-05
2.50465e-05
2.58554e-05
2.70138e-05
2.84439e-05
2.98128e-05
3.09318e-05
3.20214e-05
3.32381e-05
3.47086e-05
3.65551e-05
3.90739e-05
2.32146e-05
2.32233e-05
2.3233e-05
2.32438e-05
2.32559e-05
2.32695e-05
2.32847e-05
2.33017e-05
2.33208e-05
2.33423e-05
2.33664e-05
2.33935e-05
2.34239e-05
2.34582e-05
2.34967e-05
2.35401e-05
2.35891e-05
2.36443e-05
2.3707e-05
2.37788e-05
2.38626e-05
2.39634e-05
2.40901e-05
2.42581e-05
2.44926e-05
2.48296e-05
2.53052e-05
2.59347e-05
2.66614e-05
2.73575e-05
2.80134e-05
2.87187e-05
2.9549e-05
3.05709e-05
3.18916e-05
3.36777e-05
3.61557e-05
2.32145e-05
2.32232e-05
2.32329e-05
2.32438e-05
2.32559e-05
2.32695e-05
2.32847e-05
2.33018e-05
2.3321e-05
2.33425e-05