/*--------------------------------*- C++ -*----------------------------------*\
| =========                 |                                                 |
| \\      /  F ield         | OpenFOAM: The Open Source CFD Toolbox           |
|  \\    /   O peration     | Version:  2.3.1                                 |
|   \\  /    A nd           | Web:      www.OpenFOAM.org                      |
|    \\/     M anipulation  |                                                 |
\*---------------------------------------------------------------------------*/
FoamFile
{
    version     2.0;
    format      ascii;
    class       volScalarField;
    location    "10";
    object      k_0;
}
// * * * * * * * * * * * * * * * * * * * * * * * * * * * * * * * * * * * * * //

dimensions      [0 2 -2 0 0 0 0];

internalField   nonuniform List<scalar> 
37530
(
5.61894e-06
5.64339e-06
5.6698e-06
5.69831e-06
5.72909e-06
5.76228e-06
5.79809e-06
5.83673e-06
5.87841e-06
5.92334e-06
5.97174e-06
6.02381e-06
6.07973e-06
6.13964e-06
6.20362e-06
6.27166e-06
6.34355e-06
6.41881e-06
6.49666e-06
6.57566e-06
6.65238e-06
6.72051e-06
6.7717e-06
6.7825e-06
6.92007e-06
1.97297e-05
0.000142365
0.000249216
0.000254557
0.000243062
0.000252787
0.000256785
0.000236786
0.000216173
0.000213451
0.000216394
0.000224362
7.45338e-06
7.48448e-06
7.51807e-06
7.55431e-06
7.59341e-06
7.63558e-06
7.68109e-06
7.73019e-06
7.78314e-06
7.84019e-06
7.90161e-06
7.96764e-06
8.03849e-06
8.11432e-06
8.1952e-06
8.2811e-06
8.37176e-06
8.46664e-06
8.5643e-06
8.662e-06
8.75534e-06
8.83654e-06
8.89261e-06
8.90635e-06
8.85484e-06
9.36147e-06
2.80969e-05
8.40184e-05
0.000105666
0.000112992
0.000115505
0.000144725
0.000208546
0.000279106
0.00030271
0.000300489
0.000286538
8.19652e-06
8.22828e-06
8.26258e-06
8.29957e-06
8.33948e-06
8.38256e-06
8.42907e-06
8.47929e-06
8.53347e-06
8.59185e-06
8.65471e-06
8.72232e-06
8.79492e-06
8.87269e-06
8.95577e-06
9.04422e-06
9.13796e-06
9.23659e-06
9.3393e-06
9.44452e-06
9.54943e-06
9.64935e-06
9.7366e-06
9.80525e-06
9.85393e-06
9.87125e-06
1.06775e-05
1.68869e-05
2.51874e-05
2.99298e-05
3.34643e-05
3.88603e-05
4.85741e-05
7.46068e-05
0.0001146
0.000161868
0.000192404
8.47352e-06
8.50552e-06
8.54007e-06
8.57734e-06
8.61758e-06
8.66103e-06
8.70798e-06
8.75868e-06
8.8134e-06
8.87238e-06
8.93592e-06
9.0043e-06
9.07781e-06
9.1567e-06
9.24116e-06
9.33137e-06
9.42743e-06
9.52932e-06
9.63678e-06
9.74923e-06
9.86585e-06
9.9858e-06
1.01088e-05
1.02367e-05
1.03779e-05
1.056e-05
1.08056e-05
1.14478e-05
1.26162e-05
1.35685e-05
1.42919e-05
1.51077e-05
1.65196e-05
1.92122e-05
2.47704e-05
3.51647e-05
5.10981e-05
8.56209e-06
8.59414e-06
8.62875e-06
8.66612e-06
8.70648e-06
8.75009e-06
8.7972e-06
8.84809e-06
8.90301e-06
8.96223e-06
9.02607e-06
9.09484e-06
9.16887e-06
9.24843e-06
9.33381e-06
9.42529e-06
9.52317e-06
9.62771e-06
9.73905e-06
9.85716e-06
9.98189e-06
1.01129e-05
1.025e-05
1.03935e-05
1.05457e-05
1.07147e-05
1.09186e-05
1.1184e-05
1.15323e-05
1.19555e-05
1.24252e-05
1.29254e-05
1.34762e-05
1.41141e-05
1.49963e-05
1.63842e-05
1.86758e-05
8.58521e-06
8.61727e-06
8.65191e-06
8.68933e-06
8.72976e-06
8.77343e-06
8.82061e-06
8.87157e-06
8.92658e-06
8.98592e-06
9.04993e-06
9.11896e-06
9.19335e-06
9.27344e-06
9.35957e-06
9.45213e-06
9.55158e-06
9.65839e-06
9.77304e-06
9.89605e-06
1.00281e-05
1.01704e-05
1.03253e-05
1.04964e-05
1.06906e-05
1.09186e-05
1.11957e-05
1.15323e-05
1.19437e-05
1.24143e-05
1.28983e-05
1.3366e-05
1.383e-05
1.43248e-05
1.49075e-05
1.56165e-05
1.64963e-05
8.58493e-06
8.61703e-06
8.65173e-06
8.68921e-06
8.7297e-06
8.77344e-06
8.82068e-06
8.87171e-06
8.9268e-06
8.98628e-06
9.05048e-06
9.11977e-06
9.19452e-06
9.27509e-06
9.36191e-06
9.45549e-06
9.55639e-06
9.66524e-06
9.78273e-06
9.90969e-06
1.00471e-05
1.01962e-05
1.03586e-05
1.05365e-05
1.07329e-05
1.0952e-05
1.11992e-05
1.14809e-05
1.18015e-05
1.21629e-05
1.25657e-05
1.30114e-05
1.35018e-05
1.40415e-05
1.46636e-05
1.53788e-05
1.62202e-05
8.56131e-06
8.59347e-06
8.62825e-06
8.66581e-06
8.70636e-06
8.75016e-06
8.79747e-06
8.84856e-06
8.90375e-06
8.96337e-06
9.02777e-06
9.09731e-06
9.17237e-06
9.25338e-06
9.34085e-06
9.43537e-06
9.53759e-06
9.64824e-06
9.76816e-06
9.89836e-06
1.00401e-05
1.0195e-05
1.03656e-05
1.0555e-05
1.07678e-05
1.10094e-05
1.12859e-05
1.16023e-05
1.19616e-05
1.23608e-05
1.2792e-05
1.32508e-05
1.37397e-05
1.42748e-05
1.48939e-05
1.56136e-05
1.64542e-05
8.47236e-06
8.50451e-06
8.53931e-06
8.57687e-06
8.61741e-06
8.66118e-06
8.70846e-06
8.75951e-06
8.81467e-06
8.87428e-06
8.93872e-06
9.00834e-06
9.08355e-06
9.1648e-06
9.25267e-06
9.34782e-06
9.45097e-06
9.56291e-06
9.68459e-06
9.81717e-06
9.96203e-06
1.01209e-05
1.02958e-05
1.0489e-05
1.07033e-05
1.09418e-05
1.12079e-05
1.15049e-05
1.18358e-05
1.22031e-05
1.26095e-05
1.30592e-05
1.35553e-05
1.41035e-05
1.47368e-05
1.54659e-05
1.63124e-05
8.19534e-06
8.22726e-06
8.26182e-06
8.29912e-06
8.33939e-06
8.38286e-06
8.42981e-06
8.48052e-06
8.5353e-06
8.59453e-06
8.6586e-06
8.72787e-06
8.80275e-06
8.88374e-06
8.97143e-06
9.06652e-06
9.16975e-06
9.28198e-06
9.40423e-06
9.53772e-06
9.68393e-06
9.84466e-06
1.00221e-05
1.02188e-05
1.04379e-05
1.06829e-05
1.09572e-05
1.12638e-05
1.16046e-05
1.1981e-05
1.23936e-05
1.28441e-05
1.33358e-05
1.38751e-05
1.44809e-05
1.51852e-05
1.59971e-05
7.45264e-06
7.48386e-06
7.51766e-06
7.55417e-06
7.5936e-06
7.63618e-06
7.68219e-06
7.73187e-06
7.78556e-06
7.84362e-06
7.90645e-06
7.97442e-06
8.04796e-06
8.12756e-06
8.2138e-06
8.3074e-06
8.4091e-06
8.5198e-06
8.64053e-06
8.77254e-06
8.91731e-06
9.07657e-06
9.25232e-06
9.4468e-06
9.66243e-06
9.90172e-06
1.01672e-05
1.04613e-05
1.07865e-05
1.1145e-05
1.15398e-05
1.19739e-05
1.24512e-05
1.2975e-05
1.35525e-05
1.41724e-05
1.49197e-05
5.61872e-06
5.6432e-06
5.6697e-06
5.69834e-06
5.7293e-06
5.76277e-06
5.79894e-06
5.83803e-06
5.88029e-06
5.92599e-06
5.97544e-06
6.02897e-06
6.0869e-06
6.14963e-06
6.21762e-06
6.2914e-06
6.37156e-06
6.45879e-06
6.55391e-06
6.65787e-06
6.77179e-06
6.89695e-06
7.03489e-06
7.18728e-06
7.35604e-06
7.5431e-06
7.75036e-06
7.97965e-06
8.23256e-06
8.51065e-06
8.81574e-06
9.15007e-06
9.51661e-06
9.91753e-06
1.0359e-05
1.08297e-05
1.13788e-05
8.86389e-06
8.88497e-06
8.90775e-06
8.93236e-06
8.95894e-06
8.98764e-06
9.01863e-06
9.0521e-06
9.08824e-06
9.12726e-06
9.16935e-06
9.2147e-06
9.26347e-06
9.3158e-06
9.37181e-06
9.43153e-06
9.49489e-06
9.56194e-06
9.63216e-06
9.70436e-06
9.77611e-06
9.84178e-06
9.88387e-06
9.86271e-06
9.7151e-06
1.29877e-05
8.75611e-05
0.000258553
0.000298901
0.000292484
0.00028532
0.00028891
0.000276849
0.000243573
0.000231307
0.000226467
0.000251096
1.2729e-05
1.27417e-05
1.27554e-05
1.27703e-05
1.27864e-05
1.28038e-05
1.28227e-05
1.28431e-05
1.28653e-05
1.28894e-05
1.29154e-05
1.29434e-05
1.29735e-05
1.30057e-05
1.304e-05
1.30763e-05
1.31142e-05
1.3153e-05
1.31913e-05
1.32271e-05
1.32571e-05
1.32765e-05
1.32796e-05
1.32713e-05
1.33623e-05
1.44486e-05
2.66009e-05
9.36836e-05
0.000174979
0.000233579
0.000286824
0.000327859
0.000415904
0.000579175
0.000611226
0.000512309
0.000416629
1.45248e-05
1.4539e-05
1.45544e-05
1.45711e-05
1.45891e-05
1.46087e-05
1.463e-05
1.46532e-05
1.46784e-05
1.47057e-05
1.47353e-05
1.47673e-05
1.48018e-05
1.48389e-05
1.48787e-05
1.49212e-05
1.49661e-05
1.50133e-05
1.5062e-05
1.5111e-05
1.51585e-05
1.52027e-05
1.52438e-05
1.52853e-05
1.53513e-05
1.55858e-05
1.66533e-05
2.22464e-05
3.34225e-05
3.86851e-05
4.16253e-05
5.42858e-05
7.71729e-05
0.000113781
0.000155688
0.000199602
0.000236472
1.52358e-05
1.5251e-05
1.52674e-05
1.52851e-05
1.53044e-05
1.53254e-05
1.53483e-05
1.53732e-05
1.54003e-05
1.54296e-05
1.54615e-05
1.5496e-05
1.55334e-05
1.55737e-05
1.56172e-05
1.56639e-05
1.57139e-05
1.57673e-05
1.58237e-05
1.58828e-05
1.5944e-05
1.60077e-05
1.60766e-05
1.61623e-05
1.62979e-05
1.65744e-05
1.71561e-05
1.83262e-05
1.96637e-05
2.08302e-05
2.25467e-05
2.4177e-05
2.58395e-05
2.85958e-05
3.28875e-05
3.91326e-05
4.81593e-05
1.54876e-05
1.55032e-05
1.552e-05
1.55383e-05
1.55582e-05
1.55798e-05
1.56033e-05
1.5629e-05
1.56568e-05
1.56871e-05
1.57199e-05
1.57555e-05
1.57942e-05
1.58361e-05
1.58814e-05
1.59303e-05
1.59831e-05
1.604e-05
1.61011e-05
1.61663e-05
1.62357e-05
1.63093e-05
1.63879e-05
1.64742e-05
1.65757e-05
1.67076e-05
1.69113e-05
1.72842e-05
1.79458e-05
1.86664e-05
1.90761e-05
1.94235e-05
1.98952e-05
2.04789e-05
2.1202e-05
2.21795e-05
2.33988e-05
1.55614e-05
1.5577e-05
1.5594e-05
1.56125e-05
1.56326e-05
1.56544e-05
1.56782e-05
1.57041e-05
1.57322e-05
1.57627e-05
1.57959e-05
1.58319e-05
1.58711e-05
1.59136e-05
1.59597e-05
1.60097e-05
1.6064e-05
1.61229e-05
1.61869e-05
1.62562e-05
1.63315e-05
1.64141e-05
1.65064e-05
1.66136e-05
1.6745e-05
1.69164e-05
1.71407e-05
1.74245e-05
1.77408e-05
1.80987e-05
1.8546e-05
1.90326e-05
1.95376e-05
2.01004e-05
2.07497e-05
2.15743e-05
2.25696e-05
1.55609e-05
1.55767e-05
1.55938e-05
1.56123e-05
1.56324e-05
1.56543e-05
1.56781e-05
1.5704e-05
1.57321e-05
1.57627e-05
1.57959e-05
1.58321e-05
1.58714e-05
1.59141e-05
1.59605e-05
1.60111e-05
1.60662e-05
1.61263e-05
1.6192e-05
1.62638e-05
1.63425e-05
1.6429e-05
1.65248e-05
1.6632e-05
1.6754e-05
1.68961e-05
1.70671e-05
1.72798e-05
1.75449e-05
1.78493e-05
1.81667e-05
1.8505e-05
1.88991e-05
1.93733e-05
1.99341e-05
2.06396e-05
2.14372e-05
1.54865e-05
1.55022e-05
1.55192e-05
1.55377e-05
1.55577e-05
1.55795e-05
1.56031e-05
1.56288e-05
1.56567e-05
1.56871e-05
1.57202e-05
1.57562e-05
1.57953e-05
1.58379e-05
1.58843e-05
1.5935e-05
1.59905e-05
1.60513e-05
1.6118e-05
1.61915e-05
1.62726e-05
1.63628e-05
1.64643e-05
1.658e-05
1.67142e-05
1.68718e-05
1.70578e-05
1.72749e-05
1.75226e-05
1.78029e-05
1.81247e-05
1.8494e-05
1.89182e-05
1.94163e-05
2.00002e-05
2.07221e-05
2.155e-05
1.52341e-05
1.52495e-05
1.52662e-05
1.52842e-05
1.53038e-05
1.5325e-05
1.53481e-05
1.53731e-05
1.54003e-05
1.54299e-05
1.54622e-05
1.54973e-05
1.55355e-05
1.55771e-05
1.56225e-05
1.56723e-05
1.57269e-05
1.57869e-05
1.5853e-05
1.59261e-05
1.60072e-05
1.60978e-05
1.61996e-05
1.63148e-05
1.6446e-05
1.65965e-05
1.67701e-05
1.69711e-05
1.72028e-05
1.74675e-05
1.7768e-05
1.81124e-05
1.85112e-05
1.89817e-05
1.95238e-05
2.01942e-05
2.08899e-05
1.4523e-05
1.45374e-05
1.45532e-05
1.45701e-05
1.45885e-05
1.46084e-05
1.463e-05
1.46533e-05
1.46788e-05
1.47065e-05
1.47366e-05
1.47695e-05
1.48053e-05
1.48442e-05
1.48868e-05
1.49336e-05
1.49849e-05
1.50414e-05
1.51038e-05
1.5173e-05
1.52502e-05
1.53367e-05
1.54344e-05
1.55454e-05
1.56725e-05
1.58185e-05
1.59862e-05
1.61779e-05
1.63958e-05
1.66428e-05
1.69237e-05
1.7246e-05
1.76176e-05
1.80525e-05
1.85472e-05
1.91584e-05
1.97611e-05
1.27276e-05
1.27405e-05
1.27546e-05
1.27697e-05
1.27861e-05
1.28038e-05
1.2823e-05
1.28438e-05
1.28663e-05
1.28908e-05
1.29175e-05
1.29466e-05
1.29782e-05
1.30126e-05
1.30501e-05
1.30913e-05
1.31365e-05
1.31862e-05
1.3241e-05
1.33018e-05
1.33696e-05
1.34454e-05
1.35307e-05
1.3627e-05
1.3736e-05
1.38596e-05
1.39996e-05
1.41577e-05
1.43358e-05
1.45358e-05
1.47607e-05
1.50148e-05
1.53019e-05
1.56336e-05
1.59922e-05
1.64607e-05
1.68114e-05
8.86364e-06
8.88478e-06
8.90768e-06
8.93243e-06
8.9592e-06
8.98814e-06
9.01944e-06
9.05328e-06
9.08989e-06
9.12953e-06
9.17247e-06
9.21899e-06
9.26938e-06
9.32399e-06
9.38325e-06
9.44762e-06
9.51765e-06
9.59393e-06
9.67716e-06
9.76819e-06
9.86797e-06
9.97762e-06
1.00984e-05
1.02318e-05
1.03795e-05
1.05431e-05
1.07243e-05
1.0925e-05
1.11469e-05
1.13919e-05
1.16621e-05
1.19601e-05
1.2289e-05
1.26518e-05
1.30525e-05
1.34931e-05
1.39768e-05
1.00272e-05
1.00483e-05
1.00711e-05
1.00957e-05
1.01224e-05
1.01511e-05
1.01821e-05
1.02156e-05
1.02518e-05
1.02908e-05
1.03329e-05
1.03783e-05
1.0427e-05
1.04794e-05
1.05355e-05
1.05956e-05
1.06596e-05
1.07272e-05
1.07981e-05
1.0871e-05
1.09438e-05
1.1012e-05
1.10667e-05
1.10882e-05
1.10437e-05
1.14297e-05
3.6747e-05
0.000207046
0.000288308
0.000291143
0.00028078
0.000275792
0.000253134
0.0002095
0.000161414
0.000133841
0.000139984
1.54772e-05
1.54874e-05
1.54985e-05
1.55105e-05
1.55235e-05
1.55377e-05
1.55531e-05
1.55699e-05
1.55882e-05
1.56082e-05
1.56298e-05
1.56533e-05
1.56786e-05
1.57056e-05
1.57343e-05
1.57644e-05
1.57954e-05
1.58265e-05
1.58564e-05
1.58828e-05
1.59019e-05
1.59093e-05
1.59032e-05
1.59094e-05
1.60735e-05
1.72778e-05
2.40319e-05
6.6949e-05
0.00014398
0.000203795
0.000273112
0.0003271
0.000364729
0.000417914
0.000449211
0.000423567
0.000348854
1.7692e-05
1.77032e-05
1.77154e-05
1.77287e-05
1.77431e-05
1.77589e-05
1.77762e-05
1.77951e-05
1.78158e-05
1.78384e-05
1.7863e-05
1.78898e-05
1.79189e-05
1.79504e-05
1.79844e-05
1.80207e-05
1.80592e-05
1.80996e-05
1.81411e-05
1.81825e-05
1.82225e-05
1.8261e-05
1.83032e-05
1.83741e-05
1.85507e-05
1.90775e-05
2.0683e-05
2.51833e-05
3.50937e-05
4.15283e-05
4.31657e-05
4.90833e-05
6.26575e-05
8.09775e-05
9.713e-05
0.000120161
0.000142379
1.85966e-05
1.86087e-05
1.86219e-05
1.86364e-05
1.86521e-05
1.86694e-05
1.86883e-05
1.8709e-05
1.87318e-05
1.87566e-05
1.87837e-05
1.88134e-05
1.88458e-05
1.8881e-05
1.89192e-05
1.89606e-05
1.90052e-05
1.9053e-05
1.91038e-05
1.91575e-05
1.92142e-05
1.92759e-05
1.935e-05
1.94597e-05
1.96683e-05
2.01393e-05
2.11839e-05
2.32009e-05
2.52956e-05
2.70526e-05
3.03215e-05
3.38652e-05
3.69929e-05
4.01037e-05
4.30833e-05
4.57777e-05
4.82341e-05
1.8942e-05
1.89546e-05
1.89684e-05
1.89835e-05
1.9e-05
1.9018e-05
1.90378e-05
1.90595e-05
1.90833e-05
1.91093e-05
1.91378e-05
1.91691e-05
1.92032e-05
1.92405e-05
1.92813e-05
1.93257e-05
1.93742e-05
1.94268e-05
1.94839e-05
1.95457e-05
1.96126e-05
1.96859e-05
1.97688e-05
1.98692e-05
2.00042e-05
2.021e-05
2.05728e-05
2.12293e-05
2.23455e-05
2.36068e-05
2.43171e-05
2.48499e-05
2.55991e-05
2.65652e-05
2.77713e-05
2.92976e-05
3.11413e-05
1.90522e-05
1.90651e-05
1.90791e-05
1.90944e-05
1.91112e-05
1.91296e-05
1.91498e-05
1.91718e-05
1.9196e-05
1.92225e-05
1.92516e-05
1.92835e-05
1.93185e-05
1.93568e-05
1.93988e-05
1.94449e-05
1.94955e-05
1.95511e-05
1.96122e-05
1.96795e-05
1.97545e-05
1.98394e-05
1.99394e-05
2.00637e-05
2.02293e-05
2.04631e-05
2.07903e-05
2.12239e-05
2.17004e-05
2.22011e-05
2.28216e-05
2.35066e-05
2.42296e-05
2.50392e-05
2.59865e-05
2.71887e-05
2.8705e-05
1.90519e-05
1.90648e-05
1.90789e-05
1.90943e-05
1.91111e-05
1.91295e-05
1.91497e-05
1.91718e-05
1.9196e-05
1.92226e-05
1.92517e-05
1.92838e-05
1.93189e-05
1.93576e-05
1.94001e-05
1.94469e-05
1.94985e-05
1.95556e-05
1.96189e-05
1.96894e-05
1.97683e-05
1.98574e-05
1.99597e-05
2.00792e-05
2.02225e-05
2.04e-05
2.06257e-05
2.09192e-05
2.12882e-05
2.17133e-05
2.21466e-05
2.26042e-05
2.31493e-05
2.38241e-05
2.46516e-05
2.56987e-05
2.69605e-05
1.89411e-05
1.89539e-05
1.89678e-05
1.8983e-05
1.89997e-05
1.90178e-05
1.90377e-05
1.90595e-05
1.90834e-05
1.91097e-05
1.91385e-05
1.91701e-05
1.92049e-05
1.92432e-05
1.92855e-05
1.93322e-05
1.93841e-05
1.94417e-05
1.9506e-05
1.95781e-05
1.96596e-05
1.97528e-05
1.98612e-05
1.99898e-05
2.01454e-05
2.03356e-05
2.05679e-05
2.08441e-05
2.11592e-05
2.15118e-05
2.19148e-05
2.23823e-05
2.29329e-05
2.35986e-05
2.44056e-05
2.54189e-05
2.66322e-05
1.85952e-05
1.86075e-05
1.8621e-05
1.86357e-05
1.86517e-05
1.86691e-05
1.86883e-05
1.87092e-05
1.87321e-05
1.87573e-05
1.87849e-05
1.88154e-05
1.88488e-05
1.88857e-05
1.89265e-05
1.89717e-05
1.9022e-05
1.90781e-05
1.9141e-05
1.92119e-05
1.92923e-05
1.93844e-05
1.94908e-05
1.96148e-05
1.97606e-05
1.99333e-05
2.01387e-05
2.03824e-05
2.06689e-05
2.1e-05
2.13798e-05
2.18208e-05
2.23413e-05
2.29663e-05
2.37052e-05
2.46135e-05
2.56283e-05
1.76905e-05
1.77019e-05
1.77144e-05
1.77279e-05
1.77427e-05
1.77588e-05
1.77763e-05
1.77955e-05
1.78165e-05
1.78396e-05
1.7865e-05
1.78928e-05
1.79235e-05
1.79572e-05
1.79946e-05
1.80361e-05
1.80824e-05
1.8134e-05
1.81921e-05
1.82577e-05
1.83324e-05
1.84181e-05
1.85174e-05
1.86335e-05
1.87701e-05
1.89314e-05
1.9121e-05
1.93418e-05
1.95962e-05
1.98876e-05
2.02231e-05
2.06143e-05
2.10749e-05
2.16254e-05
2.22682e-05
2.30625e-05
2.38963e-05
1.54761e-05
1.54864e-05
1.54977e-05
1.55101e-05
1.55234e-05
1.55379e-05
1.55537e-05
1.55709e-05
1.55896e-05
1.56101e-05
1.56327e-05
1.56573e-05
1.56844e-05
1.57141e-05
1.57469e-05
1.57832e-05
1.58235e-05
1.58684e-05
1.59187e-05
1.59754e-05
1.60397e-05
1.6113e-05
1.61972e-05
1.62944e-05
1.64069e-05
1.65373e-05
1.66879e-05
1.68612e-05
1.70597e-05
1.72864e-05
1.75451e-05
1.78424e-05
1.81845e-05
1.8586e-05
1.90324e-05
1.96057e-05
2.00877e-05
1.0027e-05
1.00482e-05
1.00711e-05
1.00959e-05
1.01227e-05
1.01518e-05
1.01831e-05
1.02171e-05
1.02538e-05
1.02935e-05
1.03366e-05
1.03833e-05
1.0434e-05
1.04889e-05
1.05485e-05
1.06134e-05
1.0684e-05
1.07611e-05
1.08453e-05
1.09376e-05
1.10389e-05
1.11505e-05
1.12737e-05
1.141e-05
1.1561e-05
1.17285e-05
1.19141e-05
1.21197e-05
1.2347e-05
1.2598e-05
1.28749e-05
1.31808e-05
1.35191e-05
1.38936e-05
1.43084e-05
1.47688e-05
1.52673e-05
1.06053e-05
1.06261e-05
1.06485e-05
1.06728e-05
1.0699e-05
1.07273e-05
1.07578e-05
1.07909e-05
1.08265e-05
1.08651e-05
1.09067e-05
1.09516e-05
1.1e-05
1.1052e-05
1.11077e-05
1.11674e-05
1.12309e-05
1.12982e-05
1.13688e-05
1.14418e-05
1.15153e-05
1.15858e-05
1.16467e-05
1.16858e-05
1.16863e-05
1.16758e-05
1.68356e-05
0.000117081
0.000249969
0.000255128
0.000227274
0.000199566
0.00016726
0.000134862
0.000105923
7.75056e-05
6.33554e-05
1.70468e-05
1.70555e-05
1.70649e-05
1.70752e-05
1.70864e-05
1.70986e-05
1.71119e-05
1.71264e-05
1.71424e-05
1.71599e-05
1.7179e-05
1.71996e-05
1.7222e-05
1.72459e-05
1.72713e-05
1.7298e-05
1.73255e-05
1.7353e-05
1.73792e-05
1.74018e-05
1.74176e-05
1.7423e-05
1.74184e-05
1.74301e-05
1.75839e-05
1.85199e-05
2.2884e-05
4.41107e-05
0.000104335
0.000146542
0.000169011
0.000182997
0.000189218
0.000186201
0.000179169
0.000167565
0.00015298
1.95138e-05
1.95231e-05
1.95334e-05
1.95446e-05
1.95569e-05
1.95704e-05
1.95853e-05
1.96017e-05
1.96197e-05
1.96395e-05
1.96613e-05
1.96852e-05
1.97113e-05
1.97398e-05
1.97706e-05
1.98037e-05
1.98391e-05
1.98764e-05
1.99148e-05
1.99536e-05
1.9992e-05
2.00314e-05
2.00811e-05
2.01747e-05
2.04054e-05
2.10232e-05
2.26751e-05
2.63639e-05
3.38275e-05
4.13498e-05
4.46255e-05
4.6393e-05
4.9229e-05
5.32708e-05
5.80229e-05
6.41132e-05
7.13845e-05
2.05387e-05
2.05489e-05
2.05602e-05
2.05725e-05
2.05861e-05
2.06011e-05
2.06176e-05
2.06358e-05
2.06559e-05
2.06781e-05
2.07025e-05
2.07294e-05
2.0759e-05
2.07914e-05
2.08269e-05
2.08657e-05
2.09077e-05
2.09531e-05
2.10019e-05
2.1054e-05
2.11105e-05
2.11748e-05
2.12575e-05
2.13884e-05
2.16439e-05
2.22055e-05
2.34306e-05
2.57895e-05
2.86435e-05
3.07476e-05
3.43098e-05
3.89221e-05
4.26149e-05
4.50907e-05
4.65577e-05
4.71678e-05
4.78775e-05
2.09503e-05
2.09611e-05
2.0973e-05
2.0986e-05
2.10004e-05
2.10162e-05
2.10337e-05
2.1053e-05
2.10744e-05
2.10979e-05
2.11239e-05
2.11527e-05
2.11844e-05
2.12193e-05
2.12579e-05
2.13003e-05
2.13469e-05
2.13981e-05
2.14542e-05
2.15157e-05
2.15838e-05
2.16608e-05
2.17524e-05
2.18705e-05
2.20397e-05
2.23066e-05
2.27671e-05
2.35777e-05
2.48631e-05
2.6467e-05
2.75458e-05
2.82839e-05
2.92719e-05
3.05552e-05
3.21273e-05
3.4009e-05
3.62251e-05
2.10896e-05
2.11007e-05
2.11128e-05
2.11261e-05
2.11409e-05
2.11571e-05
2.1175e-05
2.11948e-05
2.12167e-05
2.12409e-05
2.12676e-05
2.12972e-05
2.133e-05
2.13663e-05
2.14064e-05
2.14509e-05
2.15003e-05
2.1555e-05
2.1616e-05
2.16842e-05
2.17617e-05
2.1852e-05
2.19618e-05
2.2104e-05
2.23003e-05
2.25846e-05
2.29897e-05
2.35335e-05
2.41409e-05
2.47452e-05
2.54529e-05
2.62484e-05
2.70991e-05
2.805e-05
2.91793e-05
3.06318e-05
3.25487e-05
2.10894e-05
2.11005e-05
2.11126e-05
2.1126e-05
2.11408e-05
2.1157e-05
2.1175e-05
2.11948e-05
2.12167e-05
2.1241e-05
2.12679e-05
2.12976e-05
2.13306e-05
2.13673e-05
2.1408e-05
2.14534e-05
2.1504e-05
2.15605e-05
2.16241e-05
2.16959e-05
2.17778e-05
2.18725e-05
2.1984e-05
2.21184e-05
2.22851e-05
2.24983e-05
2.27753e-05
2.31373e-05
2.35896e-05
2.41105e-05
2.46468e-05
2.52156e-05
2.58954e-05
2.6742e-05
2.77906e-05
2.91111e-05
3.074e-05
2.09497e-05
2.09606e-05
2.09725e-05
2.09857e-05
2.10002e-05
2.10161e-05
2.10337e-05
2.10532e-05
2.10747e-05
2.10985e-05
2.11249e-05
2.11541e-05
2.11867e-05
2.12228e-05
2.12632e-05
2.13083e-05
2.13589e-05
2.14159e-05
2.14803e-05
2.15537e-05
2.16382e-05
2.17368e-05
2.18541e-05
2.19967e-05
2.21734e-05
2.23937e-05
2.26669e-05
2.29948e-05
2.33695e-05
2.37848e-05
2.42538e-05
2.47997e-05
2.54519e-05
2.62522e-05
2.72387e-05
2.84815e-05
3.00004e-05
2.05377e-05
2.05481e-05
2.05595e-05
2.0572e-05
2.05858e-05
2.0601e-05
2.06177e-05
2.06361e-05
2.06565e-05
2.06791e-05
2.07041e-05
2.07319e-05
2.07628e-05
2.07973e-05
2.08358e-05
2.08789e-05
2.09275e-05
2.09824e-05
2.10447e-05
2.11161e-05
2.11985e-05
2.12945e-05
2.14076e-05
2.1542e-05
2.17033e-05
2.18979e-05
2.21332e-05
2.24161e-05
2.27514e-05
2.31415e-05
2.35916e-05
2.41168e-05
2.47405e-05
2.54928e-05
2.63913e-05
2.74889e-05
2.87542e-05
1.95127e-05
1.95222e-05
1.95326e-05
1.95441e-05
1.95566e-05
1.95704e-05
1.95856e-05
1.96023e-05
1.96208e-05
1.96412e-05
1.96638e-05
1.96889e-05
1.97168e-05
1.97478e-05
1.97825e-05
1.98215e-05
1.98654e-05
1.99151e-05
1.99717e-05
2.00365e-05
2.01115e-05
2.01989e-05
2.03019e-05
2.04244e-05
2.0571e-05
2.07466e-05
2.09557e-05
2.12017e-05
2.14873e-05
2.18163e-05
2.21973e-05
2.26448e-05
2.31769e-05
2.38179e-05
2.45761e-05
2.55059e-05
2.65234e-05
1.70458e-05
1.70546e-05
1.70643e-05
1.70749e-05
1.70865e-05
1.70991e-05
1.71129e-05
1.7128e-05
1.71445e-05
1.71628e-05
1.71829e-05
1.72052e-05
1.72297e-05
1.7257e-05
1.72872e-05
1.7321e-05
1.73589e-05
1.74015e-05
1.74498e-05
1.75047e-05
1.75677e-05
1.76405e-05
1.77252e-05
1.78241e-05
1.794e-05
1.80758e-05
1.82347e-05
1.84197e-05
1.86339e-05
1.88806e-05
1.91647e-05
1.94939e-05
1.98761e-05
2.03269e-05
2.08374e-05
2.14754e-05
2.20735e-05
1.0605e-05
1.06258e-05
1.06484e-05
1.06727e-05
1.06991e-05
1.07277e-05
1.07585e-05
1.07919e-05
1.08281e-05
1.08673e-05
1.09098e-05
1.09559e-05
1.10058e-05
1.10601e-05
1.11191e-05
1.11833e-05
1.12533e-05
1.13298e-05
1.14136e-05
1.15055e-05
1.16066e-05
1.17181e-05
1.18414e-05
1.19781e-05
1.21298e-05
1.22982e-05
1.24849e-05
1.26915e-05
1.29199e-05
1.3172e-05
1.34505e-05
1.37586e-05
1.41002e-05
1.44796e-05
1.49013e-05
1.537e-05
1.58847e-05
1.09184e-05
1.09387e-05
1.09606e-05
1.09843e-05
1.10099e-05
1.10375e-05
1.10674e-05
1.10997e-05
1.11346e-05
1.11724e-05
1.12132e-05
1.12572e-05
1.13046e-05
1.13556e-05
1.14103e-05
1.14689e-05
1.15314e-05
1.15978e-05
1.16675e-05
1.17401e-05
1.18138e-05
1.18861e-05
1.19523e-05
1.20048e-05
1.20355e-05
1.20563e-05
1.25377e-05
3.393e-05
0.000155039
0.000207497
0.000188373
0.000143002
0.000110266
8.49427e-05
6.19332e-05
4.47548e-05
3.43477e-05
1.7981e-05
1.79883e-05
1.79964e-05
1.80053e-05
1.8015e-05
1.80255e-05
1.80371e-05
1.80499e-05
1.80639e-05
1.80794e-05
1.80964e-05
1.8115e-05
1.8135e-05
1.81566e-05
1.81796e-05
1.82038e-05
1.82289e-05
1.8254e-05
1.8278e-05
1.82989e-05
1.83141e-05
1.8321e-05
1.83213e-05
1.83374e-05
1.84636e-05
1.90861e-05
2.17081e-05
3.05043e-05
5.89655e-05
9.12349e-05
9.42207e-05
8.86836e-05
8.58884e-05
8.345e-05
8.17757e-05
8.24425e-05
8.49613e-05
2.06341e-05
2.0642e-05
2.06509e-05
2.06606e-05
2.06713e-05
2.06832e-05
2.06963e-05
2.07109e-05
2.0727e-05
2.07449e-05
2.07647e-05
2.07866e-05
2.08107e-05
2.0837e-05
2.08658e-05
2.0897e-05
2.09305e-05
2.09661e-05
2.10032e-05
2.10413e-05
2.10803e-05
2.11229e-05
2.11803e-05
2.12885e-05
2.15401e-05
2.21539e-05
2.36065e-05
2.66135e-05
3.10439e-05
3.7819e-05
4.58734e-05
5.15397e-05
5.46205e-05
5.77454e-05
6.15035e-05
6.59838e-05
7.01344e-05
2.17493e-05
2.17582e-05
2.1768e-05
2.17788e-05
2.17909e-05
2.18042e-05
2.1819e-05
2.18355e-05
2.18538e-05
2.18741e-05
2.18967e-05
2.19218e-05
2.19495e-05
2.19802e-05
2.20141e-05
2.20513e-05
2.20921e-05
2.21365e-05
2.21846e-05
2.22369e-05
2.22949e-05
2.23631e-05
2.24539e-05
2.25992e-05
2.28751e-05
2.34516e-05
2.46507e-05
2.68917e-05
2.99418e-05
3.21029e-05
3.39948e-05
3.67087e-05
3.91343e-05
4.07944e-05
4.19054e-05
4.28894e-05
4.49651e-05
2.22127e-05
2.22222e-05
2.22326e-05
2.22442e-05
2.22571e-05
2.22713e-05
2.22872e-05
2.23049e-05
2.23245e-05
2.23464e-05
2.23708e-05
2.23979e-05
2.24281e-05
2.24616e-05
2.24989e-05
2.25403e-05
2.25862e-05
2.26369e-05
2.26932e-05
2.27558e-05
2.28263e-05
2.29082e-05
2.30088e-05
2.31429e-05
2.33392e-05
2.36479e-05
2.41569e-05
2.4996e-05
2.62768e-05
2.78822e-05
2.9284e-05
3.02952e-05
3.13761e-05
3.26675e-05
3.42241e-05
3.60957e-05
3.84394e-05
2.23759e-05
2.23856e-05
2.23964e-05
2.24083e-05
2.24216e-05
2.24363e-05
2.24527e-05
2.24709e-05
2.24912e-05
2.25138e-05
2.2539e-05
2.25672e-05
2.25986e-05
2.26337e-05
2.26729e-05
2.27167e-05
2.27656e-05
2.28205e-05
2.28822e-05
2.29522e-05
2.30329e-05
2.31288e-05
2.32479e-05
2.34048e-05
2.3624e-05
2.39421e-05
2.43951e-05
2.50015e-05
2.56944e-05
2.63578e-05
2.70529e-05
2.78345e-05
2.87108e-05
2.97257e-05
3.09741e-05
3.26171e-05
3.48533e-05
2.23758e-05
2.23855e-05
2.23963e-05
2.24083e-05
2.24215e-05
2.24363e-05
2.24527e-05
2.24709e-05
2.24913e-05
2.2514e-05
2.25394e-05
2.25677e-05
2.25994e-05
2.26349e-05
2.26747e-05
2.27195e-05
2.27698e-05
2.28267e-05
2.28913e-05
2.29651e-05
2.30505e-05
2.31509e-05
2.32712e-05
2.34192e-05
2.36062e-05
2.38487e-05
2.41657e-05
2.45771e-05
2.50857e-05
2.56704e-05
2.62858e-05
2.69448e-05
2.77263e-05
2.86948e-05
2.98976e-05
3.14107e-05
3.33068e-05
2.22123e-05
2.22218e-05
2.22323e-05
2.2244e-05
2.22569e-05
2.22713e-05
2.22873e-05
2.23051e-05
2.2325e-05
2.23472e-05
2.2372e-05
2.23997e-05
2.24308e-05
2.24657e-05
2.2505e-05
2.25494e-05
2.25996e-05
2.26567e-05
2.2722e-05
2.27973e-05
2.28849e-05
2.29887e-05
2.3114e-05
2.32685e-05
2.34622e-05
2.37061e-05
2.40107e-05
2.43783e-05
2.48001e-05
2.5266e-05
2.57865e-05
2.63916e-05
2.7121e-05
2.80239e-05
2.91471e-05
3.05633e-05
3.23109e-05
2.17486e-05
2.17576e-05
2.17675e-05
2.17785e-05
2.17907e-05
2.18042e-05
2.18192e-05
2.1836e-05
2.18546e-05
2.18754e-05
2.18987e-05
2.19247e-05
2.1954e-05
2.19869e-05
2.2024e-05
2.2066e-05
2.21137e-05
2.21682e-05
2.22308e-05
2.23032e-05
2.23878e-05
2.24876e-05
2.26065e-05
2.27498e-05
2.29238e-05
2.31361e-05
2.3395e-05
2.37084e-05
2.40817e-05
2.45182e-05
2.50244e-05
2.56167e-05
2.63217e-05
2.71726e-05
2.81934e-05
2.94344e-05
3.08883e-05
2.06332e-05
2.06413e-05
2.06503e-05
2.06602e-05
2.06712e-05
2.06833e-05
2.06967e-05
2.07117e-05
2.07283e-05
2.07468e-05
2.07675e-05
2.07907e-05
2.08166e-05
2.08458e-05
2.08788e-05
2.09161e-05
2.09585e-05
2.1007e-05
2.10627e-05
2.11273e-05
2.12028e-05
2.12918e-05
2.13978e-05
2.15251e-05
2.1679e-05
2.1865e-05
2.20882e-05
2.23527e-05
2.26616e-05
2.30195e-05
2.34356e-05
2.39266e-05
2.45134e-05
2.52225e-05
2.6067e-05
2.70943e-05
2.8247e-05
1.79799e-05
1.79874e-05
1.79958e-05
1.80049e-05
1.8015e-05
1.8026e-05
1.80382e-05
1.80515e-05
1.80663e-05
1.80828e-05
1.81011e-05
1.81214e-05
1.81441e-05
1.81693e-05
1.81975e-05
1.82293e-05
1.82651e-05
1.83057e-05
1.83521e-05
1.84054e-05
1.8467e-05
1.85388e-05
1.8623e-05
1.87222e-05
1.88394e-05
1.89778e-05
1.91409e-05
1.93321e-05
1.95551e-05
1.98139e-05
2.0114e-05
2.04637e-05
2.08723e-05
2.1355e-05
2.19082e-05
2.25853e-05
2.32674e-05
1.09181e-05
1.09384e-05
1.09604e-05
1.09842e-05
1.10099e-05
1.10378e-05
1.10679e-05
1.11006e-05
1.11359e-05
1.11741e-05
1.12156e-05
1.12605e-05
1.13092e-05
1.13622e-05
1.142e-05
1.14829e-05
1.15515e-05
1.16266e-05
1.17089e-05
1.17994e-05
1.1899e-05
1.20091e-05
1.2131e-05
1.22663e-05
1.24165e-05
1.25834e-05
1.27684e-05
1.29734e-05
1.32e-05
1.34503e-05
1.3727e-05
1.40334e-05
1.43739e-05
1.47531e-05
1.51757e-05
1.56463e-05
1.61685e-05
1.10915e-05
1.11113e-05
1.11327e-05
1.11558e-05
1.11808e-05
1.12079e-05
1.1237e-05
1.12686e-05
1.13027e-05
1.13397e-05
1.13796e-05
1.14227e-05
1.14692e-05
1.15192e-05
1.1573e-05
1.16306e-05
1.16921e-05
1.17575e-05
1.18265e-05
1.18986e-05
1.19726e-05
1.20467e-05
1.21176e-05
1.21808e-05
1.22328e-05
1.22824e-05
1.23966e-05
1.50476e-05
4.68961e-05
0.000100391
0.000115669
0.000102859
7.9555e-05
5.65623e-05
3.90455e-05
2.80878e-05
2.13128e-05
1.854e-05
1.85463e-05
1.85533e-05
1.8561e-05
1.85694e-05
1.85786e-05
1.85887e-05
1.85999e-05
1.86124e-05
1.86263e-05
1.86416e-05
1.86583e-05
1.86765e-05
1.86961e-05
1.87172e-05
1.87395e-05
1.87627e-05
1.87862e-05
1.88088e-05
1.88291e-05
1.8845e-05
1.8855e-05
1.88613e-05
1.88821e-05
1.89841e-05
1.93949e-05
2.08654e-05
2.50768e-05
3.46785e-05
4.92007e-05
5.40404e-05
5.2289e-05
5.03044e-05
4.9397e-05
5.08408e-05
5.48338e-05
5.92771e-05
2.13379e-05
2.13448e-05
2.13525e-05
2.13611e-05
2.13706e-05
2.13811e-05
2.13929e-05
2.1406e-05
2.14207e-05
2.14371e-05
2.14553e-05
2.14756e-05
2.14981e-05
2.15228e-05
2.15501e-05
2.15799e-05
2.16121e-05
2.16467e-05
2.16833e-05
2.17216e-05
2.17622e-05
2.18084e-05
2.18723e-05
2.19881e-05
2.22391e-05
2.28031e-05
2.40169e-05
2.63243e-05
2.94465e-05
3.29775e-05
3.88954e-05
4.61713e-05
5.20089e-05
5.56899e-05
5.82475e-05
5.98552e-05
5.99444e-05
2.25265e-05
2.25343e-05
2.2543e-05
2.25527e-05
2.25635e-05
2.25756e-05
2.25891e-05
2.26042e-05
2.26212e-05
2.26401e-05
2.26613e-05
2.2685e-05
2.27115e-05
2.27409e-05
2.27736e-05
2.28099e-05
2.28499e-05
2.28938e-05
2.29419e-05
2.29951e-05
2.30552e-05
2.31275e-05
2.32249e-05
2.33783e-05
2.3657e-05
2.42042e-05
2.52786e-05
2.71981e-05
2.98533e-05
3.20497e-05
3.31091e-05
3.39505e-05
3.50446e-05
3.61955e-05
3.75373e-05
3.95407e-05
4.29791e-05
2.30323e-05
2.30407e-05
2.305e-05
2.30605e-05
2.30722e-05
2.30853e-05
2.30999e-05
2.31163e-05
2.31347e-05
2.31554e-05
2.31785e-05
2.32044e-05
2.32335e-05
2.32661e-05
2.33025e-05
2.33432e-05
2.33888e-05
2.34395e-05
2.34964e-05
2.35604e-05
2.36337e-05
2.37205e-05
2.38291e-05
2.3976e-05
2.41909e-05
2.45229e-05
2.50457e-05
2.58537e-05
2.70113e-05
2.84412e-05
2.98109e-05
3.09304e-05
3.202e-05
3.32365e-05
3.47066e-05
3.65526e-05
3.90703e-05
2.32154e-05
2.32241e-05
2.32338e-05
2.32446e-05
2.32567e-05
2.32703e-05
2.32855e-05
2.33025e-05
2.33216e-05
2.33431e-05
2.33671e-05
2.33942e-05
2.34247e-05
2.34589e-05
2.34975e-05
2.35409e-05
2.35898e-05
2.3645e-05
2.37077e-05
2.37795e-05
2.38633e-05
2.3964e-05
2.40906e-05
2.42585e-05
2.44927e-05
2.48294e-05
2.53047e-05
2.59339e-05
2.66606e-05
2.73571e-05
2.80131e-05
2.87182e-05
2.95483e-05
3.05698e-05
3.189e-05
3.36755e-05
3.61526e-05
2.32153e-05
2.3224e-05
2.32337e-05
2.32446e-05
2.32567e-05
2.32703e-05
2.32855e-05
2.33026e-05
2.33218e-05
2.33433e-05
2.33675e-05