/*--------------------------------*- C++ -*----------------------------------*\
| =========                 |                                                 |
| \\      /  F ield         | OpenFOAM: The Open Source CFD Toolbox           |
|  \\    /   O peration     | Version:  2.3.1                                 |
|   \\  /    A nd           | Web:      www.OpenFOAM.org                      |
|    \\/     M anipulation  |                                                 |
\*---------------------------------------------------------------------------*/
FoamFile
{
    version     2.0;
    format      ascii;
    class       volScalarField;
    location    "10";
    object      nut;
}
// * * * * * * * * * * * * * * * * * * * * * * * * * * * * * * * * * * * * * //

dimensions      [0 2 -1 0 0 0 0];

internalField   nonuniform List<scalar> 
37530
(
2.99374e-06
3.00026e-06
3.00727e-06
3.01483e-06
3.02297e-06
3.03173e-06
3.04114e-06
3.05127e-06
3.06215e-06
3.07384e-06
3.08639e-06
3.09982e-06
3.11419e-06
3.12951e-06
3.14578e-06
3.16299e-06
3.18108e-06
3.1999e-06
3.21925e-06
3.23875e-06
3.25757e-06
3.27416e-06
3.28652e-06
3.28894e-06
3.32535e-06
5.68712e-06
1.51916e-05
1.9939e-05
2.01302e-05
1.9674e-05
2.00756e-05
2.02237e-05
1.94047e-05
1.855e-05
1.84362e-05
1.85648e-05
1.89002e-05
3.44812e-06
3.45531e-06
3.46306e-06
3.47141e-06
3.48039e-06
3.49005e-06
3.50044e-06
3.51162e-06
3.52364e-06
3.53654e-06
3.55037e-06
3.56519e-06
3.58102e-06
3.59788e-06
3.61578e-06
3.63469e-06
3.65454e-06
3.67519e-06
3.69632e-06
3.71733e-06
3.73728e-06
3.75451e-06
3.7663e-06
3.76904e-06
3.75793e-06
3.8714e-06
6.76696e-06
1.16101e-05
1.29841e-05
1.3417e-05
1.3574e-05
1.52064e-05
1.8264e-05
2.11054e-05
2.19636e-05
2.18751e-05
2.13613e-05
3.616e-06
3.62301e-06
3.63056e-06
3.63869e-06
3.64743e-06
3.65685e-06
3.66699e-06
3.6779e-06
3.68964e-06
3.70225e-06
3.71578e-06
3.73028e-06
3.74578e-06
3.76232e-06
3.7799e-06
3.79853e-06
3.81817e-06
3.83873e-06
3.86002e-06
3.88169e-06
3.90318e-06
3.92351e-06
3.94115e-06
3.95495e-06
3.96468e-06
3.96816e-06
4.13346e-06
5.20799e-06
6.3468e-06
6.9118e-06
7.30781e-06
7.87487e-06
8.81094e-06
1.09265e-05
1.35383e-05
1.60809e-05
1.75189e-05
3.67664e-06
3.68358e-06
3.69106e-06
3.69912e-06
3.70779e-06
3.71713e-06
3.7272e-06
3.73805e-06
3.74972e-06
3.76225e-06
3.77571e-06
3.79014e-06
3.80559e-06
3.8221e-06
3.8397e-06
3.8584e-06
3.87822e-06
3.89913e-06
3.92106e-06
3.94388e-06
3.9674e-06
3.99144e-06
4.01594e-06
4.04127e-06
4.06911e-06
4.10479e-06
4.15263e-06
4.27564e-06
4.4887e-06
4.65388e-06
4.77597e-06
4.91067e-06
5.13551e-06
5.54009e-06
6.29327e-06
7.50071e-06
9.04008e-06
3.69583e-06
3.70274e-06
3.7102e-06
3.71823e-06
3.72689e-06
3.73622e-06
3.74627e-06
3.7571e-06
3.76875e-06
3.78127e-06
3.79473e-06
3.80917e-06
3.82465e-06
3.84122e-06
3.85892e-06
3.8778e-06
3.89789e-06
3.91924e-06
3.94184e-06
3.96568e-06
3.9907e-06
4.01681e-06
4.04394e-06
4.07215e-06
4.10186e-06
4.13465e-06
4.17388e-06
4.22447e-06
4.28991e-06
4.36802e-06
4.453e-06
4.54175e-06
4.63752e-06
4.74612e-06
4.89254e-06
5.11466e-06
5.46167e-06
3.70082e-06
3.70773e-06
3.71518e-06
3.72321e-06
3.73187e-06
3.74121e-06
3.75126e-06
3.76209e-06
3.77374e-06
3.78628e-06
3.79975e-06
3.81422e-06
3.82976e-06
3.84642e-06
3.86425e-06
3.88332e-06
3.90371e-06
3.92549e-06
3.94873e-06
3.97352e-06
3.99996e-06
4.02827e-06
4.05883e-06
4.09237e-06
4.13012e-06
4.174e-06
4.22676e-06
4.28997e-06
4.36597e-06
4.45119e-06
4.53707e-06
4.61852e-06
4.69795e-06
4.78126e-06
4.87759e-06
4.99232e-06
5.13115e-06
3.70076e-06
3.70768e-06
3.71514e-06
3.72319e-06
3.73186e-06
3.74121e-06
3.75127e-06
3.76212e-06
3.77379e-06
3.78635e-06
3.79986e-06
3.81439e-06
3.83e-06
3.84676e-06
3.86474e-06
3.88402e-06
3.9047e-06
3.92689e-06
3.9507e-06
3.97627e-06
4.00376e-06
4.03338e-06
4.0654e-06
4.10018e-06
4.13825e-06
4.18031e-06
4.22728e-06
4.28016e-06
4.33956e-06
4.40556e-06
4.47796e-06
4.55671e-06
4.64183e-06
4.73372e-06
4.83749e-06
4.95413e-06
5.08791e-06
3.69566e-06
3.7026e-06
3.71009e-06
3.71816e-06
3.72686e-06
3.73623e-06
3.74633e-06
3.7572e-06
3.76891e-06
3.78152e-06
3.79509e-06
3.80969e-06
3.82538e-06
3.84225e-06
3.86038e-06
3.87988e-06
3.90085e-06
3.92343e-06
3.94776e-06
3.974e-06
4.00237e-06
4.03316e-06
4.06678e-06
4.10381e-06
4.14501e-06
4.19132e-06
4.24369e-06
4.30284e-06
4.36903e-06
4.44137e-06
4.51819e-06
4.59849e-06
4.68256e-06
4.77289e-06
4.87534e-06
4.99178e-06
5.12445e-06
3.67639e-06
3.68337e-06
3.6909e-06
3.69902e-06
3.70775e-06
3.71717e-06
3.72731e-06
3.73823e-06
3.74999e-06
3.76266e-06
3.7763e-06
3.79099e-06
3.8068e-06
3.8238e-06
3.8421e-06
3.86182e-06
3.88308e-06
3.90603e-06
3.93082e-06
3.95766e-06
3.98677e-06
4.01846e-06
4.05306e-06
4.09095e-06
4.13257e-06
4.17839e-06
4.22893e-06
4.28464e-06
4.34586e-06
4.41281e-06
4.48571e-06
4.56504e-06
4.65098e-06
4.74411e-06
4.84952e-06
4.96808e-06
5.10227e-06
3.61574e-06
3.62278e-06
3.63039e-06
3.63859e-06
3.64741e-06
3.65691e-06
3.66715e-06
3.67817e-06
3.69004e-06
3.70283e-06
3.71662e-06
3.73147e-06
3.74746e-06
3.76467e-06
3.78322e-06
3.80323e-06
3.82484e-06
3.8482e-06
3.87347e-06
3.90089e-06
3.9307e-06
3.96322e-06
3.9988e-06
4.03789e-06
4.081e-06
4.12867e-06
4.18138e-06
4.23951e-06
4.30322e-06
4.3725e-06
4.44716e-06
4.52729e-06
4.61316e-06
4.70552e-06
4.80719e-06
4.92275e-06
5.05268e-06
3.44795e-06
3.45517e-06
3.46297e-06
3.47138e-06
3.48043e-06
3.49019e-06
3.50069e-06
3.512e-06
3.52419e-06
3.53732e-06
3.55147e-06
3.56671e-06
3.58314e-06
3.60083e-06
3.6199e-06
3.64048e-06
3.66272e-06
3.68677e-06
3.71282e-06
3.7411e-06
3.77187e-06
3.80543e-06
3.84213e-06
3.88234e-06
3.92643e-06
3.97479e-06
4.02777e-06
4.08565e-06
4.1487e-06
4.21712e-06
4.29118e-06
4.37118e-06
4.45748e-06
4.5503e-06
4.65049e-06
4.75568e-06
4.87951e-06
2.99368e-06
3.00021e-06
3.00725e-06
3.01484e-06
3.02303e-06
3.03186e-06
3.04136e-06
3.05161e-06
3.06264e-06
3.07453e-06
3.08735e-06
3.10116e-06
3.11603e-06
3.13206e-06
3.14935e-06
3.16799e-06
3.18813e-06
3.2099e-06
3.23347e-06
3.25904e-06
3.28683e-06
3.31709e-06
3.35013e-06
3.38626e-06
3.42582e-06
3.46914e-06
3.51652e-06
3.56819e-06
3.62433e-06
3.68507e-06
3.75057e-06
3.82106e-06
3.89687e-06
3.97813e-06
4.06574e-06
4.15708e-06
4.26123e-06
7.52016e-06
7.52911e-06
7.53876e-06
7.54918e-06
7.56041e-06
7.57252e-06
7.58558e-06
7.59966e-06
7.61483e-06
7.63117e-06
7.64876e-06
7.66767e-06
7.68795e-06
7.70965e-06
7.73281e-06
7.75742e-06
7.78345e-06
7.8109e-06
7.83953e-06
7.86885e-06
7.89786e-06
7.92426e-06
7.94097e-06
7.93192e-06
7.87189e-06
9.17114e-06
2.39416e-05
4.0691e-05
4.36475e-05
4.31508e-05
4.26384e-05
4.29078e-05
4.19852e-05
3.93816e-05
3.83763e-05
3.79689e-05
3.99902e-05
1.67443e-05
1.67531e-05
1.67626e-05
1.67727e-05
1.67836e-05
1.67953e-05
1.6808e-05
1.68217e-05
1.68365e-05
1.68523e-05
1.68692e-05
1.68871e-05
1.69057e-05
1.69248e-05
1.69439e-05
1.69623e-05
1.69788e-05
1.69902e-05
1.69923e-05
1.69782e-05
1.69358e-05
1.68433e-05
1.66538e-05
1.62376e-05
1.54917e-05
1.46455e-05
1.31235e-05
1.93226e-05
2.939e-05
3.61587e-05
4.12672e-05
4.34835e-05
4.87907e-05
6.1844e-05
6.61397e-05
6.13392e-05
5.93193e-05
2.12534e-05
2.12653e-05
2.12782e-05
2.12921e-05
2.1307e-05
2.13232e-05
2.13409e-05
2.13601e-05
2.13809e-05
2.14033e-05
2.14274e-05
2.1453e-05
2.14801e-05
2.15085e-05
2.15377e-05
2.15673e-05
2.15962e-05
2.1623e-05
2.16446e-05
2.16563e-05
2.165e-05
2.16125e-05
2.15236e-05
2.12902e-05
2.07392e-05
1.97514e-05
1.78771e-05
1.13125e-05
9.93942e-06
1.02575e-05
1.05444e-05
1.15991e-05
1.37915e-05
1.74683e-05
2.22476e-05
2.71649e-05
3.21186e-05
2.31924e-05
2.32059e-05
2.32205e-05
2.32362e-05
2.32533e-05
2.32719e-05
2.32923e-05
2.33145e-05
2.33385e-05
2.33644e-05
2.33923e-05
2.34222e-05
2.34541e-05
2.34878e-05
2.35232e-05
2.35598e-05
2.35973e-05
2.36346e-05
2.36696e-05
2.36993e-05
2.3719e-05
2.37224e-05
2.3702e-05
2.36527e-05
2.357e-05
2.34279e-05
2.32311e-05
2.27698e-05
2.05129e-05
2.042e-05
2.12602e-05
2.14348e-05
2.0193e-05
1.66289e-05
1.32959e-05
1.1564e-05
1.12322e-05
2.39248e-05
2.3939e-05
2.39544e-05
2.39711e-05
2.39893e-05
2.40091e-05
2.40307e-05
2.40542e-05
2.40797e-05
2.41072e-05
2.41369e-05
2.41688e-05
2.42031e-05
2.42396e-05
2.42782e-05
2.4319e-05
2.43618e-05
2.4406e-05
2.44506e-05
2.44935e-05
2.45317e-05
2.45607e-05
2.45739e-05
2.45634e-05
2.45213e-05
2.44168e-05
2.42112e-05
2.40124e-05
2.39224e-05
2.38802e-05
2.36902e-05
2.34253e-05
2.31714e-05
2.26225e-05
2.14075e-05
1.946e-05
1.71961e-05
2.41478e-05
2.41623e-05
2.41781e-05
2.41952e-05
2.42138e-05
2.4234e-05
2.42561e-05
2.428e-05
2.4306e-05
2.4334e-05
2.43642e-05
2.43969e-05
2.44321e-05
2.44699e-05
2.45102e-05
2.45532e-05
2.4599e-05
2.46475e-05
2.46982e-05
2.47504e-05
2.48029e-05
2.48546e-05
2.49057e-05
2.49582e-05
2.50199e-05
2.51065e-05
2.52272e-05
2.54284e-05
2.57538e-05
2.62226e-05
2.67996e-05
2.73551e-05
2.78384e-05
2.82917e-05
2.86983e-05
2.9104e-05
2.94522e-05
2.41465e-05
2.41613e-05
2.41772e-05
2.41945e-05
2.42132e-05
2.42336e-05
2.42557e-05
2.42796e-05
2.43056e-05
2.43336e-05
2.43641e-05
2.4397e-05
2.44324e-05
2.44706e-05
2.45116e-05
2.45557e-05
2.46034e-05
2.46545e-05
2.47093e-05
2.47674e-05
2.48286e-05
2.48925e-05
2.49584e-05
2.50261e-05
2.5096e-05
2.51723e-05
2.52654e-05
2.53917e-05
2.55669e-05
2.57849e-05
2.60298e-05
2.63098e-05
2.66626e-05
2.71131e-05
2.76752e-05
2.84174e-05
2.92492e-05
2.39214e-05
2.39361e-05
2.39521e-05
2.39693e-05
2.39879e-05
2.4008e-05
2.40298e-05
2.40535e-05
2.40791e-05
2.41069e-05
2.4137e-05
2.41696e-05
2.42048e-05
2.42427e-05
2.42838e-05
2.43286e-05
2.43774e-05
2.44304e-05
2.44881e-05
2.45507e-05
2.46187e-05
2.46931e-05
2.47755e-05
2.4869e-05
2.49785e-05
2.51109e-05
2.52764e-05
2.5487e-05
2.57533e-05
2.60819e-05
2.64707e-05
2.69092e-05
2.73995e-05
2.79558e-05
2.8594e-05
2.93749e-05
3.02404e-05
2.31875e-05
2.32016e-05
2.3217e-05
2.32336e-05
2.32514e-05
2.32705e-05
2.32912e-05
2.33136e-05
2.33379e-05
2.33644e-05
2.33931e-05
2.34242e-05
2.34577e-05
2.34941e-05
2.35337e-05
2.35772e-05
2.36249e-05
2.36772e-05
2.37348e-05
2.37983e-05
2.38687e-05
2.39473e-05
2.40358e-05
2.41362e-05
2.42512e-05
2.43842e-05
2.45397e-05
2.47231e-05
2.49376e-05
2.51861e-05
2.54739e-05
2.58116e-05
2.62149e-05
2.6697e-05
2.72623e-05
2.79702e-05
2.86581e-05
2.12484e-05
2.1261e-05
2.12747e-05
2.12894e-05
2.13051e-05
2.1322e-05
2.13402e-05
2.13598e-05
2.13811e-05
2.14043e-05
2.14296e-05
2.1457e-05
2.14867e-05
2.15189e-05
2.15542e-05
2.1593e-05
2.16358e-05
2.16832e-05
2.17357e-05
2.17944e-05
2.18604e-05
2.19354e-05
2.20212e-05
2.21204e-05
2.22363e-05
2.23727e-05
2.25335e-05
2.27228e-05
2.29439e-05
2.31998e-05
2.34937e-05
2.38304e-05
2.42157e-05
2.46614e-05
2.51589e-05
2.57691e-05
2.63222e-05
1.67413e-05
1.67505e-05
1.67606e-05
1.67714e-05
1.67829e-05
1.67952e-05
1.68085e-05
1.68228e-05
1.68382e-05
1.6855e-05
1.68733e-05
1.68932e-05
1.69148e-05
1.69382e-05
1.69639e-05
1.69923e-05
1.70236e-05
1.70585e-05
1.70975e-05
1.71414e-05
1.71913e-05
1.72483e-05
1.73139e-05
1.73896e-05
1.74768e-05
1.75768e-05
1.76908e-05
1.78194e-05
1.79632e-05
1.8123e-05
1.83007e-05
1.85002e-05
1.87247e-05
1.89844e-05
1.9259e-05
1.96341e-05
1.98612e-05
7.52006e-06
7.52903e-06
7.53873e-06
7.54921e-06
7.56052e-06
7.57274e-06
7.58593e-06
7.60016e-06
7.61552e-06
7.63213e-06
7.65007e-06
7.66946e-06
7.69041e-06
7.71306e-06
7.73755e-06
7.76407e-06
7.79282e-06
7.82401e-06
7.85791e-06
7.89482e-06
7.93508e-06
7.97908e-06
8.02729e-06
8.08019e-06
8.13835e-06
8.20229e-06
8.27256e-06
8.34968e-06
8.43411e-06
8.52634e-06
8.62693e-06
8.73653e-06
8.85592e-06
8.98576e-06
9.127e-06
9.27985e-06
9.44479e-06
7.99857e-06
8.00699e-06
8.01608e-06
8.02589e-06
8.03646e-06
8.04787e-06
8.06017e-06
8.07342e-06
8.08772e-06
8.10312e-06
8.1197e-06
8.13751e-06
8.15662e-06
8.17708e-06
8.19898e-06
8.22234e-06
8.24713e-06
8.27327e-06
8.30055e-06
8.32853e-06
8.35634e-06
8.38231e-06
8.40297e-06
8.41086e-06
8.39351e-06
8.55102e-06
1.55168e-05
3.65394e-05
4.28775e-05
4.30642e-05
4.22919e-05
4.19181e-05
4.01429e-05
3.65214e-05
3.20568e-05
2.91751e-05
2.98377e-05
2.71634e-05
2.71831e-05
2.72043e-05
2.72273e-05
2.72519e-05
2.72784e-05
2.73071e-05
2.73381e-05
2.73717e-05
2.74079e-05
2.74468e-05
2.74881e-05
2.75316e-05
2.75765e-05
2.76211e-05
2.76636e-05
2.77015e-05
2.77299e-05
2.77409e-05
2.77203e-05
2.76434e-05
2.74658e-05
2.71096e-05
2.64458e-05
2.53227e-05
2.40381e-05
2.17405e-05
1.86552e-05
2.74201e-05
3.55398e-05
4.39538e-05
4.99212e-05
5.34073e-05
5.80499e-05
6.23644e-05
6.17153e-05
5.70761e-05
3.82436e-05
3.82816e-05
3.83228e-05
3.83672e-05
3.84152e-05
3.84671e-05
3.85235e-05
3.85847e-05
3.86509e-05
3.87225e-05
3.87996e-05
3.88823e-05
3.89706e-05
3.90642e-05
3.91625e-05
3.92645e-05
3.93687e-05
3.94718e-05
3.95686e-05
3.96499e-05
3.97006e-05
3.96971e-05
3.9604e-05
3.93638e-05
3.88903e-05
3.81038e-05
3.6523e-05
2.49066e-05
1.54214e-05
1.42417e-05
1.40302e-05
1.38148e-05
1.44252e-05
1.60523e-05
1.79326e-05
2.1346e-05
2.62101e-05
4.35373e-05
4.35851e-05
4.36368e-05
4.36928e-05
4.37534e-05
4.38191e-05
4.38906e-05
4.39682e-05
4.40524e-05
4.41433e-05
4.42414e-05
4.43471e-05
4.44606e-05
4.45817e-05
4.47106e-05
4.48467e-05
4.49894e-05
4.51367e-05
4.52853e-05
4.54294e-05
4.55608e-05
4.56688e-05
4.57426e-05
4.57808e-05
4.58163e-05
4.59776e-05
4.64009e-05
4.69243e-05
4.26225e-05
4.09708e-05
4.30237e-05
4.43985e-05
4.36378e-05
4.10867e-05
3.7966e-05
3.30303e-05
2.78599e-05
4.57182e-05
4.57707e-05
4.58275e-05
4.58891e-05
4.59559e-05
4.60284e-05
4.61072e-05
4.61928e-05
4.62855e-05
4.63857e-05
4.64941e-05
4.66112e-05
4.67373e-05
4.68727e-05
4.70178e-05
4.71726e-05
4.73374e-05
4.75114e-05
4.76931e-05
4.78792e-05
4.80652e-05
4.8244e-05
4.84067e-05
4.85449e-05
4.86557e-05
4.87549e-05
4.89544e-05
4.93786e-05
5.00045e-05
5.05362e-05
5.06169e-05
5.04698e-05
5.03385e-05
5.00538e-05
4.95214e-05
4.84405e-05
4.69011e-05
4.64332e-05
4.64875e-05
4.65465e-05
4.66103e-05
4.66796e-05
4.67548e-05
4.68364e-05
4.6925e-05
4.70209e-05
4.71246e-05
4.7237e-05
4.73586e-05
4.74899e-05
4.76316e-05
4.7784e-05
4.7948e-05
4.81242e-05
4.83129e-05
4.8514e-05
4.8727e-05
4.89509e-05
4.9186e-05
4.9435e-05
4.97072e-05
5.00239e-05
5.0425e-05
5.09421e-05
5.16772e-05
5.2655e-05
5.38864e-05
5.53948e-05
5.69226e-05
5.83452e-05
5.97329e-05
6.11354e-05
6.26805e-05
6.44783e-05
4.64311e-05
4.64857e-05
4.65449e-05
4.66091e-05
4.66787e-05
4.67541e-05
4.68358e-05
4.69245e-05
4.70205e-05
4.71245e-05
4.72372e-05
4.73594e-05
4.74915e-05
4.76343e-05
4.77886e-05
4.79555e-05
4.81361e-05
4.83313e-05
4.8542e-05
4.8769e-05
4.90131e-05
4.92754e-05
4.95576e-05
4.98633e-05
5.01992e-05
5.05834e-05
5.10407e-05
5.16145e-05
5.23108e-05
5.31339e-05
5.40333e-05
5.50453e-05
5.62663e-05
5.77605e-05
5.9579e-05
6.18225e-05
6.45003e-05
4.57124e-05
4.57656e-05
4.58235e-05
4.5886e-05
4.59537e-05
4.60269e-05
4.61062e-05
4.61922e-05
4.62855e-05
4.63866e-05
4.64963e-05
4.66153e-05
4.67441e-05
4.68837e-05
4.70353e-05
4.72003e-05
4.73799e-05
4.75757e-05
4.77893e-05
4.80225e-05
4.82781e-05
4.85595e-05
4.88729e-05
4.92271e-05
4.96354e-05
5.01134e-05
5.06847e-05
5.13702e-05
5.21886e-05
5.31531e-05
5.42693e-05
5.5533e-05
5.69583e-05
5.85885e-05
6.04809e-05
6.27412e-05
6.5379e-05
4.35291e-05
4.3578e-05
4.36311e-05
4.36885e-05
4.37504e-05
4.38173e-05
4.38897e-05
4.39682e-05
4.40533e-05
4.41458e-05
4.42462e-05
4.43552e-05
4.44734e-05
4.46017e-05
4.47417e-05
4.48947e-05
4.50622e-05
4.52459e-05
4.5448e-05
4.56711e-05
4.59185e-05
4.61945e-05
4.65046e-05
4.68555e-05
4.72554e-05
4.77142e-05
4.82437e-05
4.88561e-05
4.95582e-05
5.03577e-05
5.12692e-05
5.23214e-05
5.35506e-05
5.49931e-05
5.66774e-05
5.86832e-05
6.09122e-05
3.82359e-05
3.82749e-05
3.83174e-05
3.83633e-05
3.84127e-05
3.84661e-05
3.85238e-05
3.85863e-05
3.8654e-05
3.87277e-05
3.8808e-05
3.88952e-05
3.899e-05
3.90932e-05
3.92061e-05
3.93302e-05
3.94667e-05
3.96175e-05
3.97847e-05
3.9971e-05
4.01801e-05
4.04161e-05
4.06847e-05
4.09924e-05
4.13473e-05
4.17579e-05
4.22335e-05
4.27812e-05
4.34072e-05
4.41174e-05
4.49224e-05
4.58386e-05
4.68867e-05
4.80962e-05
4.94717e-05
5.10901e-05
5.28038e-05
2.71592e-05
2.71795e-05
2.72019e-05
2.72259e-05
2.72518e-05
2.72797e-05
2.73098e-05
2.73422e-05
2.73774e-05
2.74159e-05
2.74579e-05
2.75037e-05
2.75536e-05
2.76081e-05
2.76682e-05
2.77347e-05
2.78086e-05
2.78911e-05
2.79839e-05
2.80888e-05
2.82083e-05
2.83453e-05
2.85031e-05
2.86853e-05
2.88955e-05
2.91366e-05
2.9411e-05
2.972e-05
3.00649e-05
3.04482e-05
3.08748e-05
3.13548e-05
3.18988e-05
3.2526e-05
3.32202e-05
3.40741e-05
3.48084e-05
7.99848e-06
8.00693e-06
8.01608e-06
8.02595e-06
8.03662e-06
8.04814e-06
8.06058e-06
8.07401e-06
8.08852e-06
8.1042e-06
8.12117e-06
8.13951e-06
8.15934e-06
8.1808e-06
8.20405e-06
8.22925e-06
8.25662e-06
8.28637e-06
8.31877e-06
8.35412e-06
8.39277e-06
8.43513e-06
8.48164e-06
8.5328e-06
8.58915e-06
8.65119e-06
8.71944e-06
8.79443e-06
8.87658e-06
8.96641e-06
9.06448e-06
9.17158e-06
9.2886e-06
9.41647e-06
9.55606e-06
9.70868e-06
9.87121e-06
8.22603e-06
8.23407e-06
8.24277e-06
8.25216e-06
8.26229e-06
8.27322e-06
8.28501e-06
8.29773e-06
8.31145e-06
8.32625e-06
8.34221e-06
8.35937e-06
8.37782e-06
8.39761e-06
8.41878e-06
8.44137e-06
8.46536e-06
8.49069e-06
8.51718e-06
8.54447e-06
8.57185e-06
8.59801e-06
8.62049e-06
8.63479e-06
8.63474e-06
8.63148e-06
1.04462e-05
2.76052e-05
3.99463e-05
4.03074e-05
3.80371e-05
3.56498e-05
3.26304e-05
2.93012e-05
2.59669e-05
2.22086e-05
2.00673e-05
3.41237e-05
3.41425e-05
3.41629e-05
3.4185e-05
3.42086e-05
3.42339e-05
3.4261e-05
3.42905e-05
3.43224e-05
3.4357e-05
3.43939e-05
3.44326e-05
3.44724e-05
3.45123e-05
3.45508e-05
3.45855e-05
3.46128e-05
3.46266e-05
3.46165e-05
3.45648e-05
3.44413e-05
3.41927e-05
3.37296e-05
3.29108e-05
3.15615e-05
2.98852e-05
2.85927e-05
2.1185e-05
2.39927e-05
3.03766e-05
3.63059e-05
4.06641e-05
4.12935e-05
3.97995e-05
3.82526e-05
3.67101e-05
3.63702e-05
5.1542e-05
5.15908e-05
5.16437e-05
5.1701e-05
5.17628e-05
5.18298e-05
5.19025e-05
5.19813e-05
5.20669e-05
5.21595e-05
5.22595e-05
5.23668e-05
5.24814e-05
5.2603e-05
5.27309e-05
5.28639e-05
5.29998e-05
5.31346e-05
5.32616e-05
5.33694e-05
5.34401e-05
5.34465e-05
5.33504e-05
5.31044e-05
5.26621e-05
5.19998e-05
5.09205e-05
4.34731e-05
2.54501e-05
2.17074e-05
2.19181e-05
2.20624e-05
2.14751e-05
2.03126e-05
1.95267e-05
1.9453e-05
2.05695e-05
6.06747e-05
6.07419e-05
6.08147e-05
6.08936e-05
6.0979e-05
6.10718e-05
6.11726e-05
6.12821e-05
6.14008e-05
6.15295e-05
6.16685e-05
6.18185e-05
6.19798e-05
6.21526e-05
6.23368e-05
6.25323e-05
6.27379e-05
6.29514e-05
6.31688e-05
6.33833e-05
6.35857e-05
6.37646e-05
6.39111e-05
6.40322e-05
6.41895e-05
6.45822e-05
6.55149e-05
6.71511e-05
6.51101e-05
6.24446e-05
6.43504e-05
6.6935e-05
6.7705e-05
6.6186e-05
6.27921e-05
5.86114e-05
5.32526e-05
6.47216e-05
6.47982e-05
6.48813e-05
6.49714e-05
6.50691e-05
6.51753e-05
6.52907e-05
6.5416e-05
6.55519e-05
6.56992e-05
6.58587e-05
6.60312e-05
6.62176e-05
6.64183e-05
6.6634e-05
6.68652e-05
6.7112e-05
6.73741e-05
6.76497e-05
6.7936e-05
6.82283e-05
6.85205e-05
6.88069e-05
6.90859e-05
6.93695e-05
6.9701e-05
7.02582e-05
7.13283e-05
7.26428e-05
7.40013e-05
7.47528e-05
7.51094e-05
7.56559e-05
7.6356e-05
7.703e-05
7.77049e-05
7.83436e-05
6.61301e-05
6.62105e-05
6.62977e-05
6.63924e-05
6.64952e-05
6.66068e-05
6.67281e-05
6.68597e-05
6.70026e-05
6.71574e-05
6.73253e-05
6.75073e-05
6.77044e-05
6.79176e-05
6.81477e-05
6.83962e-05
6.8664e-05
6.89521e-05
6.92611e-05
6.95912e-05
6.99429e-05
7.03188e-05
7.07264e-05
7.11828e-05
7.17233e-05
7.24072e-05
7.32798e-05
7.44647e-05
7.59483e-05
7.76682e-05
7.97113e-05
8.18366e-05
8.38838e-05
8.59511e-05
8.81683e-05
9.07561e-05
9.40313e-05
6.61277e-05
6.62084e-05
6.6296e-05
6.6391e-05
6.64942e-05
6.66061e-05
6.67275e-05
6.68594e-05
6.70024e-05
6.71577e-05
6.73261e-05
6.7509e-05
6.77073e-05
6.79222e-05
6.81552e-05
6.84079e-05
6.8682e-05
6.89795e-05
6.93021e-05
6.96518e-05
7.00313e-05
7.0444e-05
7.08953e-05
7.13943e-05
7.19565e-05
7.26141e-05
7.34048e-05
7.43855e-05
7.55509e-05
7.68995e-05
7.83613e-05
7.99902e-05
8.19241e-05
8.42499e-05
8.70383e-05
9.03979e-05
9.44231e-05
6.47151e-05
6.47925e-05
6.48767e-05
6.49679e-05
6.50667e-05
6.51738e-05
6.529e-05
6.54161e-05
6.55531e-05
6.57018e-05
6.58634e-05
6.60391e-05
6.62299e-05
6.64372e-05
6.6663e-05
6.69091e-05
6.7178e-05
6.74721e-05
6.77943e-05
6.81481e-05
6.85384e-05
6.89718e-05
6.94584e-05
7.00125e-05
7.06542e-05
7.14046e-05
7.22947e-05
7.33455e-05
7.45664e-05
7.59733e-05
7.75748e-05
7.9378e-05
8.14233e-05
8.37825e-05
8.65406e-05
8.98196e-05
9.36979e-05
6.06657e-05
6.0734e-05
6.08084e-05
6.08888e-05
6.09759e-05
6.10703e-05
6.11725e-05
6.12835e-05
6.1404e-05
6.15351e-05
6.16778e-05
6.1833e-05
6.20018e-05
6.21858e-05
6.23869e-05
6.26073e-05
6.28493e-05
6.31158e-05
6.34102e-05
6.37369e-05
6.41014e-05
6.45106e-05
6.49734e-05
6.55005e-05
6.6105e-05
6.68018e-05
6.76072e-05
6.8537e-05
6.96009e-05
7.07982e-05
7.215e-05
7.36947e-05
7.54839e-05
7.7572e-05
8.00093e-05
8.28692e-05
8.61005e-05
5.15334e-05
5.15833e-05
5.16378e-05
5.16968e-05
5.17605e-05
5.18296e-05
5.19043e-05
5.19853e-05
5.20734e-05
5.21695e-05
5.22743e-05
5.23886e-05
5.25131e-05
5.26494e-05
5.27991e-05
5.29641e-05
5.31465e-05
5.3349e-05
5.35749e-05
5.38283e-05
5.41144e-05
5.44397e-05
5.48123e-05
5.52418e-05
5.57389e-05
5.63144e-05
5.6977e-05
5.7734e-05
5.85904e-05
5.95521e-05
6.06337e-05
6.18621e-05
6.32761e-05
6.49152e-05
6.67978e-05
6.89894e-05
7.13806e-05
3.41188e-05
3.41387e-05
3.41608e-05
3.41845e-05
3.42101e-05
3.42378e-05
3.42677e-05
3.43e-05
3.43352e-05
3.4374e-05
3.44168e-05
3.44636e-05
3.4515e-05
3.45717e-05
3.46348e-05
3.47053e-05
3.47844e-05
3.48736e-05
3.4975e-05
3.50911e-05
3.52251e-05
3.53808e-05
3.55623e-05
3.57743e-05
3.60212e-05
3.63065e-05
3.66326e-05
3.70014e-05
3.74136e-05
3.78713e-05
3.83806e-05
3.89556e-05
3.96128e-05
4.03753e-05
4.12319e-05
4.22627e-05
4.32331e-05
8.2259e-06
8.23397e-06
8.24271e-06
8.25215e-06
8.26235e-06
8.27338e-06
8.28529e-06
8.29815e-06
8.31206e-06
8.3271e-06
8.34338e-06
8.361e-06
8.38006e-06
8.40071e-06
8.4231e-06
8.44741e-06
8.47385e-06
8.50263e-06
8.53402e-06
8.56835e-06
8.60595e-06
8.64724e-06
8.69267e-06
8.74275e-06
8.79799e-06
8.8589e-06
8.92594e-06
8.99958e-06
9.08025e-06
9.16849e-06
9.26497e-06
9.37053e-06
9.4862e-06
9.61305e-06
9.75213e-06
9.90439e-06
1.00689e-05
8.34663e-06
8.35438e-06
8.36275e-06
8.3718e-06
8.38156e-06
8.39209e-06
8.40345e-06
8.41571e-06
8.42895e-06
8.44324e-06
8.45865e-06
8.47524e-06
8.49309e-06
8.51223e-06
8.53274e-06
8.55464e-06
8.57794e-06
8.60258e-06
8.62843e-06
8.6552e-06
8.68233e-06
8.70884e-06
8.733e-06
8.75205e-06
8.76307e-06
8.77071e-06
8.95367e-06
1.48923e-05
3.15969e-05
3.63725e-05
3.46078e-05
3.01452e-05
2.64838e-05
2.32455e-05
1.98491e-05
1.68771e-05
1.47836e-05
3.87326e-05
3.87455e-05
3.87596e-05
3.87749e-05
3.87911e-05
3.88082e-05
3.88264e-05
3.88464e-05
3.88684e-05
3.88924e-05
3.8918e-05
3.89443e-05
3.89704e-05
3.89951e-05
3.90168e-05
3.9033e-05
3.90395e-05
3.90297e-05
3.89926e-05
3.89095e-05
3.87494e-05
3.84596e-05
3.79528e-05
3.70988e-05
3.57237e-05
3.38769e-05
3.24221e-05
2.94853e-05
2.27607e-05
2.58299e-05
2.94488e-05
3.06889e-05
3.32167e-05
3.38527e-05
3.34352e-05
3.3751e-05
3.485e-05
6.15437e-05
6.15918e-05
6.1644e-05
6.17007e-05
6.17619e-05
6.1828e-05
6.18998e-05
6.19778e-05
6.20627e-05
6.21548e-05
6.22542e-05
6.23609e-05
6.24747e-05
6.25953e-05
6.27217e-05
6.28526e-05
6.29855e-05
6.31159e-05
6.32365e-05
6.33353e-05
6.33944e-05
6.33877e-05
6.32818e-05
6.30429e-05
6.26525e-05
6.21316e-05
6.14574e-05
5.93449e-05
4.56348e-05
3.57018e-05
3.72334e-05
3.88077e-05
3.93881e-05
3.98752e-05
3.96335e-05
3.98603e-05
4.07394e-05
7.44665e-05
7.4539e-05
7.46176e-05
7.47028e-05
7.47952e-05
7.48955e-05
7.50045e-05
7.51229e-05
7.52515e-05
7.53908e-05
7.55417e-05
7.57046e-05
7.58798e-05
7.60675e-05
7.62678e-05
7.64803e-05
7.67038e-05
7.69358e-05
7.71722e-05
7.74061e-05
7.76288e-05
7.78307e-05
7.80074e-05
7.81763e-05
7.84126e-05
7.89378e-05
8.01319e-05
8.22023e-05
8.35533e-05
8.14781e-05
8.21474e-05
8.32291e-05
8.32178e-05
8.19503e-05
7.9655e-05
7.67473e-05
7.2541e-05
8.05567e-05
8.06425e-05
8.07357e-05
8.08369e-05
8.09467e-05
8.1066e-05
8.11956e-05
8.13365e-05
8.14894e-05
8.16553e-05
8.18351e-05
8.20297e-05
8.22403e-05
8.24673e-05
8.27115e-05
8.29735e-05
8.32537e-05
8.35517e-05
8.38661e-05
8.41945e-05
8.45334e-05
8.48796e-05
8.52324e-05
8.56002e-05
8.60116e-05
8.65317e-05
8.73397e-05
8.87469e-05
9.07921e-05
9.27615e-05
9.44109e-05
9.55623e-05
9.67571e-05
9.81351e-05
9.95826e-05
0.000101215
0.000102897
8.27819e-05
8.28734e-05
8.29728e-05
8.30807e-05
8.31979e-05
8.33253e-05
8.34637e-05
8.3614e-05
8.37773e-05
8.39545e-05
8.41469e-05
8.43554e-05
8.45818e-05
8.4827e-05
8.50921e-05
8.53787e-05
8.56882e-05
8.60221e-05
8.63812e-05
8.6767e-05
8.71817e-05
8.76306e-05
8.81257e-05
8.86919e-05
8.93751e-05
9.02474e-05
9.13645e-05
9.28349e-05
9.46409e-05
9.65934e-05
9.87685e-05
0.000101091
0.000103457
0.000105967
0.0001088
0.000112244
0.000116645
8.27796e-05
8.28714e-05
8.29711e-05
8.30794e-05
8.31969e-05
8.33246e-05
8.34633e-05
8.36139e-05
8.37776e-05
8.39553e-05
8.41484e-05
8.4358e-05
8.4586e-05
8.48335e-05
8.51021e-05
8.5394e-05
8.57113e-05
8.60564e-05
8.64319e-05
8.6841e-05
8.7288e-05
8.77788e-05
8.83225e-05
8.89339e-05
8.96365e-05
9.04736e-05
9.14921e-05
9.27494e-05
9.42336e-05
9.59262e-05
9.77569e-05
9.97768e-05
0.000102143
0.000104968
0.000108341
0.000112388
0.000117268
8.05503e-05
8.06369e-05
8.07312e-05
8.08335e-05
8.09444e-05
8.10648e-05
8.11955e-05
8.13376e-05
8.1492e-05
8.16599e-05
8.18425e-05
8.20412e-05
8.22578e-05
8.24935e-05
8.27506e-05
8.30317e-05
8.33394e-05
8.36771e-05
8.40485e-05
8.44586e-05
8.4914e-05
8.54236e-05
8.6001e-05
8.66648e-05
8.74397e-05
8.835e-05
8.94288e-05
9.06953e-05
9.21448e-05
9.37798e-05
9.56157e-05
9.76899e-05
0.000100069
0.000102845
0.000106125
0.000110041
0.000114665
7.44576e-05
7.45311e-05
7.46112e-05
7.46981e-05
7.47923e-05
7.48945e-05
7.50054e-05
7.51258e-05
7.52569e-05
7.53996e-05
7.55553e-05
7.57251e-05
7.59101e-05
7.61124e-05
7.6334e-05
7.65776e-05
7.68461e-05
7.7143e-05
7.74726e-05
7.78405e-05
7.82539e-05
7.87216e-05
7.92548e-05
7.98673e-05
8.05753e-05
8.13968e-05
8.23504e-05
8.34523e-05
8.47127e-05
8.61315e-05
8.77294e-05
8.95495e-05
9.16552e-05
9.4116e-05
9.69846e-05
0.000100323
0.000104112
6.15347e-05
6.15839e-05
6.16378e-05
6.16962e-05
6.17595e-05
6.18282e-05
6.19028e-05
6.19838e-05
6.20721e-05
6.21687e-05
6.22744e-05
6.23901e-05
6.25166e-05
6.26557e-05
6.28093e-05
6.29794e-05
6.31686e-05
6.338e-05
6.36175e-05
6.38863e-05
6.41926e-05
6.45442e-05
6.49506e-05
6.54229e-05
6.59733e-05
6.66136e-05
6.73536e-05
6.81996e-05
6.91551e-05
7.02252e-05
7.14283e-05
7.27997e-05
7.43821e-05
7.62216e-05
7.83444e-05
8.07997e-05
8.35039e-05
3.87262e-05
3.87402e-05
3.87561e-05
3.87732e-05
3.87919e-05
3.88123e-05
3.88345e-05
3.88586e-05
3.88854e-05
3.89157e-05
3.89497e-05
3.89877e-05
3.90297e-05
3.90765e-05
3.91294e-05
3.91892e-05
3.92574e-05
3.93356e-05
3.94262e-05
3.95321e-05
3.96568e-05
3.98046e-05
3.99801e-05
4.01882e-05
4.04336e-05
4.072e-05
4.10499e-05
4.14244e-05
4.18438e-05
4.23117e-05
4.28351e-05
4.34298e-05
4.41138e-05
4.49089e-05
4.58159e-05
4.69058e-05
4.80199e-05
8.34651e-06
8.35427e-06
8.36268e-06
8.37176e-06
8.38158e-06
8.39219e-06
8.40365e-06
8.41603e-06
8.42942e-06
8.44389e-06
8.45956e-06
8.4765e-06
8.49485e-06
8.51475e-06
8.53637e-06
8.55987e-06
8.58545e-06
8.61334e-06
8.6438e-06
8.67716e-06
8.71376e-06
8.75401e-06
8.79838e-06
8.84734e-06
8.90141e-06
8.96108e-06
9.02679e-06
9.09902e-06
9.17822e-06
9.26488e-06
9.35973e-06
9.4637e-06
9.5779e-06
9.70346e-06
9.84155e-06
9.99306e-06
1.01585e-05
8.4126e-06
8.4201e-06
8.42821e-06
8.43697e-06
8.44643e-06
8.45664e-06
8.46765e-06
8.47954e-06
8.49239e-06
8.50627e-06
8.52125e-06
8.53739e-06
8.55475e-06
8.5734e-06
8.59339e-06
8.61476e-06
8.63753e-06
8.66166e-06
8.68706e-06
8.7135e-06
8.74057e-06
8.76754e-06
8.79327e-06
8.8161e-06
8.8348e-06
8.85275e-06
8.89493e-06
9.83798e-06
1.74236e-05
2.5368e-05
2.71589e-05
2.5588e-05
2.24928e-05
1.89649e-05
1.57584e-05
1.33689e-05
1.16518e-05
4.1712e-05
4.17181e-05
4.17251e-05
4.17327e-05
4.17404e-05
4.17483e-05
4.17566e-05
4.17661e-05
4.17771e-05
4.17895e-05
4.18026e-05
4.18155e-05
4.1827e-05
4.1836e-05
4.18409e-05
4.18389e-05
4.1826e-05
4.17954e-05
4.17363e-05
4.1631e-05
4.14505e-05
4.11473e-05
4.06447e-05
3.98318e-05
3.85613e-05
3.6796e-05
3.49994e-05
3.38343e-05
2.99076e-05
2.59485e-05
2.53285e-05
2.75673e-05
3.08052e-05
3.4301e-05
3.74381e-05
4.02206e-05
4.20372e-05
6.87553e-05
6.87966e-05
6.88417e-05
6.88906e-05
6.89434e-05
6.90005e-05
6.90625e-05
6.91301e-05
6.9204e-05
6.92844e-05
6.93714e-05
6.94648e-05
6.95642e-05
6.96692e-05
6.97791e-05
6.98922e-05
7.00058e-05
7.01155e-05
7.0214e-05
7.02899e-05
7.03269e-05
7.03024e-05
7.019e-05
6.99706e-05
6.96486e-05
6.92766e-05
6.89375e-05
6.83968e-05
6.48611e-05
5.66686e-05
5.60112e-05
5.9074e-05
6.20412e-05
6.28816e-05
6.29703e-05
6.34022e-05
6.32138e-05
8.50586e-05
8.51268e-05
8.5201e-05
8.52814e-05
8.53687e-05
8.54635e-05
8.55665e-05
8.56786e-05
8.58006e-05
8.59331e-05
8.60766e-05
8.62316e-05
8.63985e-05
8.65775e-05
8.67685e-05
8.69711e-05
8.71841e-05
8.74049e-05
8.76296e-05
8.78521e-05
8.8065e-05
8.82617e-05
8.84423e-05
8.86314e-05
8.89121e-05
8.94882e-05
9.07298e-05
9.29104e-05
9.533e-05
9.62003e-05
9.62621e-05
9.6244e-05
9.5736e-05
9.50848e-05
9.42706e-05
9.42404e-05
9.58713e-05
9.31425e-05
9.32265e-05
9.33178e-05
9.34169e-05
9.35247e-05
9.36417e-05
9.37691e-05
9.39076e-05
9.40581e-05
9.42217e-05
9.43993e-05
9.45917e-05
9.47999e-05
9.50247e-05
9.52669e-05
9.55273e-05
9.5806e-05
9.61029e-05
9.64171e-05
9.67469e-05
9.70908e-05
9.74484e-05
9.78249e-05
9.82376e-05
9.8728e-05
9.93748e-05
0.000100329
0.000101854
0.000104087
0.000106623
0.000108681
0.000110396
0.000112041
0.000113868
0.000115927
0.000118379
0.000121537
9.62146e-05
9.63055e-05
9.64043e-05
9.65117e-05
9.66285e-05
9.67555e-05
9.68935e-05
9.70437e-05
9.7207e-05
9.73843e-05
9.75774e-05
9.7787e-05
9.80145e-05
9.82613e-05
9.85289e-05
9.88188e-05
9.91325e-05
9.94718e-05
9.98382e-05
0.000100234
0.000100663
0.000101134
0.000101661
0.000102277
0.000103032
0.000104006
0.000105263
0.000106873
0.000108812
0.000110863
0.000112971
0.000115218
0.000117649
0.000120398
0.000123687
0.000127805
0.000133087
9.62125e-05
9.63037e-05
9.64028e-05
9.65106e-05
9.66277e-05
9.6755e-05
9.68934e-05
9.70439e-05
9.72077e-05