/*--------------------------------*- C++ -*----------------------------------*\
| =========                 |                                                 |
| \\      /  F ield         | OpenFOAM: The Open Source CFD Toolbox           |
|  \\    /   O peration     | Version:  2.3.1                                 |
|   \\  /    A nd           | Web:      www.OpenFOAM.org                      |
|    \\/     M anipulation  |                                                 |
\*---------------------------------------------------------------------------*/
FoamFile
{
    version     2.0;
    format      ascii;
    class       volScalarField;
    location    "10";
    object      p;
}
// * * * * * * * * * * * * * * * * * * * * * * * * * * * * * * * * * * * * * //

dimensions      [0 2 -2 0 0 0 0];

internalField   nonuniform List<scalar> 
37530
(
-8.07856
-8.07856
-8.07857
-8.07857
-8.07858
-8.07859
-8.07859
-8.0786
-8.07861
-8.07861
-8.07862
-8.07863
-8.07864
-8.07865
-8.07866
-8.07867
-8.07868
-8.07869
-8.07869
-8.07869
-8.07867
-8.07864
-8.07856
-8.07838
-8.07804
-8.07729
-8.0775
-8.07938
-8.08083
-8.0803
-8.07998
-8.08003
-8.07945
-8.07912
-8.07931
-8.07921
-8.07905
-8.07856
-8.07856
-8.07857
-8.07857
-8.07858
-8.07858
-8.07859
-8.0786
-8.07861
-8.07861
-8.07862
-8.07863
-8.07864
-8.07865
-8.07866
-8.07867
-8.07868
-8.07869
-8.07869
-8.07869
-8.07869
-8.07868
-8.07865
-8.0786
-8.07854
-8.07849
-8.07908
-8.08122
-8.08195
-8.08032
-8.07917
-8.07912
-8.07914
-8.0792
-8.07938
-8.07949
-8.07957
-8.07856
-8.07856
-8.07857
-8.07857
-8.07858
-8.07858
-8.07859
-8.0786
-8.07861
-8.07861
-8.07862
-8.07863
-8.07864
-8.07865
-8.07866
-8.07867
-8.07868
-8.07869
-8.0787
-8.0787
-8.0787
-8.07869
-8.07866
-8.07862
-8.07855
-8.07849
-8.07858
-8.07897
-8.07928
-8.07933
-8.0793
-8.07932
-8.07923
-8.07916
-8.07927
-8.07946
-8.07967
-8.07856
-8.07856
-8.07857
-8.07857
-8.07858
-8.07858
-8.07859
-8.0786
-8.07861
-8.07861
-8.07862
-8.07863
-8.07864
-8.07865
-8.07866
-8.07867
-8.07868
-8.07869
-8.0787
-8.07871
-8.07872
-8.07873
-8.07874
-8.07877
-8.07881
-8.07892
-8.07915
-8.0796
-8.07999
-8.07986
-8.07952
-8.07937
-8.07931
-8.07929
-8.07932
-8.07939
-8.07952
-8.07856
-8.07856
-8.07857
-8.07857
-8.07858
-8.07858
-8.07859
-8.0786
-8.07861
-8.07861
-8.07862
-8.07863
-8.07864
-8.07865
-8.07866
-8.07867
-8.07869
-8.0787
-8.07871
-8.07872
-8.07873
-8.07874
-8.07875
-8.07875
-8.07876
-8.07879
-8.07885
-8.07895
-8.07906
-8.07911
-8.07915
-8.0792
-8.07923
-8.07928
-8.07935
-8.07944
-8.07956
-8.07856
-8.07856
-8.07857
-8.07857
-8.07858
-8.07858
-8.07859
-8.0786
-8.07861
-8.07861
-8.07862
-8.07863
-8.07864
-8.07865
-8.07866
-8.07868
-8.07869
-8.0787
-8.07872
-8.07873
-8.07875
-8.07877
-8.0788
-8.07884
-8.07889
-8.07898
-8.0791
-8.07926
-8.07941
-8.07946
-8.07943
-8.07939
-8.07938
-8.07939
-8.07943
-8.07949
-8.07959
-8.07856
-8.07856
-8.07857
-8.07857
-8.07858
-8.07858
-8.07859
-8.0786
-8.07861
-8.07861
-8.07862
-8.07863
-8.07864
-8.07865
-8.07867
-8.07868
-8.07869
-8.07871
-8.07872
-8.07874
-8.07876
-8.07878
-8.0788
-8.07882
-8.07885
-8.07888
-8.07893
-8.07898
-8.07904
-8.07909
-8.07914
-8.07919
-8.07924
-8.07931
-8.07938
-8.07946
-8.07955
-8.07856
-8.07856
-8.07857
-8.07857
-8.07858
-8.07858
-8.07859
-8.0786
-8.07861
-8.07862
-8.07862
-8.07863
-8.07864
-8.07866
-8.07867
-8.07868
-8.07869
-8.07871
-8.07873
-8.07874
-8.07877
-8.07879
-8.07882
-8.07886
-8.07891
-8.07897
-8.07905
-8.07913
-8.07922
-8.07928
-8.07931
-8.07934
-8.07936
-8.0794
-8.07945
-8.07952
-8.0796
-8.07856
-8.07856
-8.07857
-8.07857
-8.07858
-8.07859
-8.07859
-8.0786
-8.07861
-8.07862
-8.07862
-8.07863
-8.07865
-8.07866
-8.07867
-8.07868
-8.0787
-8.07871
-8.07873
-8.07875
-8.07877
-8.0788
-8.07882
-8.07885
-8.07889
-8.07892
-8.07896
-8.07901
-8.07905
-8.0791
-8.07915
-8.07921
-8.07926
-8.07933
-8.0794
-8.07948
-8.07956
-8.07856
-8.07856
-8.07857
-8.07857
-8.07858
-8.07859
-8.07859
-8.0786
-8.07861
-8.07862
-8.07863
-8.07864
-8.07865
-8.07866
-8.07867
-8.07868
-8.0787
-8.07871
-8.07873
-8.07875
-8.07878
-8.0788
-8.07883
-8.07887
-8.07891
-8.07896
-8.07901
-8.07907
-8.07913
-8.07919
-8.07924
-8.07929
-8.07933
-8.07939
-8.07944
-8.07951
-8.07959
-8.07856
-8.07856
-8.07857
-8.07857
-8.07858
-8.07859
-8.07859
-8.0786
-8.07861
-8.07862
-8.07863
-8.07864
-8.07865
-8.07866
-8.07867
-8.07868
-8.0787
-8.07872
-8.07874
-8.07876
-8.07878
-8.0788
-8.07883
-8.07887
-8.0789
-8.07894
-8.07898
-8.07903
-8.07907
-8.07912
-8.07918
-8.07923
-8.07929
-8.07935
-8.07942
-8.07949
-8.07957
-8.07856
-8.07856
-8.07857
-8.07857
-8.07858
-8.07859
-8.07859
-8.0786
-8.07861
-8.07862
-8.07863
-8.07864
-8.07865
-8.07866
-8.07867
-8.07869
-8.0787
-8.07872
-8.07874
-8.07876
-8.07878
-8.07881
-8.07884
-8.07887
-8.07891
-8.07895
-8.079
-8.07905
-8.0791
-8.07915
-8.0792
-8.07925
-8.07931
-8.07937
-8.07943
-8.07951
-8.07958
-8.18892
-8.18892
-8.18893
-8.18894
-8.18894
-8.18895
-8.18895
-8.18896
-8.18897
-8.18898
-8.18899
-8.18899
-8.189
-8.18901
-8.18902
-8.18903
-8.18904
-8.18905
-8.18905
-8.18905
-8.18904
-8.18901
-8.18894
-8.18878
-8.18852
-8.18793
-8.18805
-8.18971
-8.1912
-8.19091
-8.19053
-8.19046
-8.18992
-8.18962
-8.18982
-8.18975
-8.18953
-8.18892
-8.18892
-8.18893
-8.18894
-8.18894
-8.18895
-8.18895
-8.18896
-8.18897
-8.18898
-8.18899
-8.18899
-8.189
-8.18901
-8.18902
-8.18903
-8.18904
-8.18905
-8.18906
-8.18906
-8.18905
-8.18904
-8.18902
-8.18898
-8.18892
-8.1889
-8.18926
-8.19121
-8.19251
-8.19123
-8.18971
-8.18947
-8.18947
-8.18961
-8.18981
-8.18996
-8.19004
-8.18892
-8.18892
-8.18893
-8.18894
-8.18894
-8.18895
-8.18895
-8.18896
-8.18897
-8.18898
-8.18899
-8.18899
-8.189
-8.18901
-8.18902
-8.18903
-8.18904
-8.18905
-8.18906
-8.18906
-8.18906
-8.18905
-8.18903
-8.18899
-8.18893
-8.18888
-8.18896
-8.18934
-8.18969
-8.18972
-8.18965
-8.18965
-8.18961
-8.1896
-8.18972
-8.1899
-8.19011
-8.18892
-8.18892
-8.18893
-8.18894
-8.18894
-8.18895
-8.18895
-8.18896
-8.18897
-8.18898
-8.18899
-8.18899
-8.189
-8.18901
-8.18902
-8.18904
-8.18905
-8.18906
-8.18907
-8.18908
-8.18909
-8.1891
-8.18911
-8.18913
-8.18918
-8.18928
-8.1895
-8.18992
-8.19034
-8.19026
-8.18992
-8.18975
-8.18968
-8.18967
-8.1897
-8.18977
-8.1899
-8.18892
-8.18892
-8.18893
-8.18894
-8.18894
-8.18895
-8.18895
-8.18896
-8.18897
-8.18898
-8.18899
-8.189
-8.18901
-8.18902
-8.18903
-8.18904
-8.18905
-8.18906
-8.18907
-8.18908
-8.1891
-8.18911
-8.18911
-8.18912
-8.18913
-8.18916
-8.18921
-8.18931
-8.18942
-8.18948
-8.18951
-8.18955
-8.18959
-8.18964
-8.18971
-8.18981
-8.18993
-8.18892
-8.18892
-8.18893
-8.18894
-8.18894
-8.18895
-8.18895
-8.18896
-8.18897
-8.18898
-8.18899
-8.189
-8.18901
-8.18902
-8.18903
-8.18904
-8.18905
-8.18907
-8.18908
-8.18909
-8.18911
-8.18913
-8.18916
-8.1892
-8.18926
-8.18934
-8.18946
-8.18962
-8.18977
-8.18983
-8.18979
-8.18976
-8.18975
-8.18976
-8.1898
-8.18986
-8.18996
-8.18892
-8.18892
-8.18893
-8.18894
-8.18894
-8.18895
-8.18895
-8.18896
-8.18897
-8.18898
-8.18899
-8.189
-8.18901
-8.18902
-8.18903
-8.18904
-8.18905
-8.18907
-8.18908
-8.1891
-8.18912
-8.18914
-8.18916
-8.18919
-8.18921
-8.18925
-8.18929
-8.18934
-8.1894
-8.18945
-8.1895
-8.18955
-8.18961
-8.18967
-8.18974
-8.18983
-8.18992
-8.18892
-8.18892
-8.18893
-8.18894
-8.18894
-8.18895
-8.18895
-8.18896
-8.18897
-8.18898
-8.18899
-8.189
-8.18901
-8.18902
-8.18903
-8.18904
-8.18906
-8.18907
-8.18909
-8.18911
-8.18913
-8.18915
-8.18918
-8.18922
-8.18927
-8.18933
-8.18941
-8.1895
-8.18958
-8.18964
-8.18968
-8.1897
-8.18973
-8.18977
-8.18982
-8.18988
-8.18996
-8.18892
-8.18892
-8.18893
-8.18894
-8.18894
-8.18895
-8.18895
-8.18896
-8.18897
-8.18898
-8.18899
-8.189
-8.18901
-8.18902
-8.18903
-8.18905
-8.18906
-8.18908
-8.18909
-8.18911
-8.18913
-8.18916
-8.18919
-8.18922
-8.18925
-8.18929
-8.18933
-8.18937
-8.18942
-8.18947
-8.18952
-8.18957
-8.18963
-8.18969
-8.18976
-8.18984
-8.18993
-8.18892
-8.18892
-8.18893
-8.18894
-8.18894
-8.18895
-8.18895
-8.18896
-8.18897
-8.18898
-8.18899
-8.189
-8.18901
-8.18902
-8.18903
-8.18905
-8.18906
-8.18908
-8.1891
-8.18912
-8.18914
-8.18916
-8.18919
-8.18923
-8.18927
-8.18932
-8.18938
-8.18944
-8.1895
-8.18955
-8.1896
-8.18965
-8.1897
-8.18975
-8.18981
-8.18988
-8.18996
-8.18892
-8.18893
-8.18893
-8.18894
-8.18894
-8.18895
-8.18896
-8.18896
-8.18897
-8.18898
-8.18899
-8.189
-8.18901
-8.18902
-8.18903
-8.18905
-8.18906
-8.18908
-8.1891
-8.18912
-8.18914
-8.18917
-8.1892
-8.18923
-8.18927
-8.1893
-8.18935
-8.18939
-8.18944
-8.18949
-8.18954
-8.18959
-8.18965
-8.18972
-8.18978
-8.18986
-8.18994
-8.18892
-8.18893
-8.18893
-8.18894
-8.18894
-8.18895
-8.18896
-8.18896
-8.18897
-8.18898
-8.18899
-8.189
-8.18901
-8.18902
-8.18903
-8.18905
-8.18906
-8.18908
-8.1891
-8.18912
-8.18914
-8.18917
-8.1892
-8.18923
-8.18927
-8.18931
-8.18936
-8.18941
-8.18946
-8.18951
-8.18956
-8.18962
-8.18967
-8.18973
-8.1898
-8.18987
-8.18995
-8.29928
-8.29929
-8.29929
-8.2993
-8.2993
-8.29931
-8.29932
-8.29932
-8.29933
-8.29934
-8.29935
-8.29936
-8.29937
-8.29938
-8.29939
-8.2994
-8.2994
-8.29941
-8.29942
-8.29942
-8.2994
-8.29938
-8.29932
-8.29919
-8.29898
-8.29857
-8.29851
-8.29988
-8.30141
-8.30138
-8.30073
-8.3005
-8.30029
-8.30016
-8.30029
-8.30018
-8.2999
-8.29928
-8.29929
-8.29929
-8.2993
-8.2993
-8.29931
-8.29932
-8.29932
-8.29933
-8.29934
-8.29935
-8.29936
-8.29937
-8.29938
-8.29939
-8.2994
-8.2994
-8.29941
-8.29942
-8.29942
-8.29942
-8.29941
-8.29939
-8.29936
-8.29932
-8.29932
-8.29954
-8.30095
-8.30265
-8.30183
-8.30025
-8.29982
-8.29982
-8.29996
-8.30021
-8.30033
-8.30032
-8.29928
-8.29929
-8.29929
-8.2993
-8.2993
-8.29931
-8.29932
-8.29932
-8.29933
-8.29934
-8.29935
-8.29936
-8.29937
-8.29938
-8.29939
-8.2994
-8.29941
-8.29942
-8.29942
-8.29943
-8.29943
-8.29942
-8.2994
-8.29937
-8.29932
-8.29929
-8.29935
-8.29967
-8.30004
-8.3001
-8.30001
-8.30001
-8.3
-8.3
-8.30009
-8.30022
-8.30037
-8.29928
-8.29929
-8.29929
-8.2993
-8.2993
-8.29931
-8.29932
-8.29932
-8.29933
-8.29934
-8.29935
-8.29936
-8.29937
-8.29938
-8.29939
-8.2994
-8.29941
-8.29942
-8.29943
-8.29944
-8.29945
-8.29946
-8.29948
-8.2995
-8.29955
-8.29965
-8.29984
-8.30021
-8.30065
-8.30063
-8.30031
-8.30013
-8.30006
-8.30005
-8.30009
-8.30016
-8.30027
-8.29928
-8.29929
-8.29929
-8.2993
-8.2993
-8.29931
-8.29932
-8.29932
-8.29933
-8.29934
-8.29935
-8.29936
-8.29937
-8.29938
-8.29939
-8.2994
-8.29941
-8.29942
-8.29944
-8.29945
-8.29946
-8.29947
-8.29948
-8.29949
-8.2995
-8.29953
-8.29958
-8.29968
-8.29979
-8.29984
-8.29988
-8.29992
-8.29996
-8.30001
-8.30008
-8.30017
-8.30029
-8.29928
-8.29929
-8.29929
-8.2993
-8.2993
-8.29931
-8.29932
-8.29932
-8.29933
-8.29934
-8.29935
-8.29936
-8.29937
-8.29938
-8.29939
-8.2994
-8.29942
-8.29943
-8.29944
-8.29946
-8.29947
-8.2995
-8.29952
-8.29956
-8.29962
-8.2997
-8.29982
-8.29997
-8.30012
-8.30018
-8.30016
-8.30012
-8.30011
-8.30013
-8.30017
-8.30023
-8.30033
-8.29928
-8.29929
-8.29929
-8.2993
-8.2993
-8.29931
-8.29932
-8.29932
-8.29933
-8.29934
-8.29935
-8.29936
-8.29937
-8.29938
-8.29939
-8.2994
-8.29942
-8.29943
-8.29945
-8.29946
-8.29948
-8.2995
-8.29953
-8.29955
-8.29958
-8.29961
-8.29966
-8.29971
-8.29977
-8.29982
-8.29987
-8.29992
-8.29997
-8.30004
-8.30011
-8.30019
-8.30029
-8.29928
-8.29929
-8.29929
-8.2993
-8.2993
-8.29931
-8.29932
-8.29932
-8.29933
-8.29934
-8.29935
-8.29936
-8.29937
-8.29938
-8.29939
-8.29941
-8.29942
-8.29944
-8.29945
-8.29947
-8.29949
-8.29952
-8.29955
-8.29958
-8.29963
-8.2997
-8.29977
-8.29985
-8.29994
-8.3
-8.30004
-8.30006
-8.30009
-8.30013
-8.30018
-8.30025
-8.30033
-8.29928
-8.29929
-8.29929
-8.2993
-8.2993
-8.29931
-8.29932
-8.29932
-8.29933
-8.29934
-8.29935
-8.29936
-8.29937
-8.29938
-8.29939
-8.29941
-8.29942
-8.29944
-8.29946
-8.29948
-8.2995
-8.29952
-8.29955
-8.29958
-8.29961
-8.29965
-8.29969
-8.29973
-8.29978
-8.29983
-8.29988
-8.29994
-8.3
-8.30006
-8.30013
-8.30021
-8.30029
-8.29928
-8.29929
-8.29929
-8.2993
-8.2993
-8.29931
-8.29932
-8.29932
-8.29933
-8.29934
-8.29935
-8.29936
-8.29937
-8.29938
-8.2994
-8.29941
-8.29942
-8.29944
-8.29946
-8.29948
-8.2995
-8.29953
-8.29956
-8.29959
-8.29964
-8.29968
-8.29974
-8.2998
-8.29986
-8.29991
-8.29997
-8.30001
-8.30006
-8.30011
-8.30017
-8.30024
-8.30032
-8.29928
-8.29929
-8.29929
-8.2993
-8.2993
-8.29931
-8.29932
-8.29932
-8.29933
-8.29934
-8.29935
-8.29936
-8.29937
-8.29938
-8.2994
-8.29941
-8.29943
-8.29944
-8.29946
-8.29948
-8.2995
-8.29953
-8.29956
-8.29959
-8.29963
-8.29967
-8.29971
-8.29975
-8.2998
-8.29985
-8.2999
-8.29996
-8.30002
-8.30008
-8.30015
-8.30022
-8.3003
-8.29928
-8.29929
-8.29929
-8.2993
-8.2993
-8.29931
-8.29932
-8.29933
-8.29933
-8.29934
-8.29935
-8.29936
-8.29937
-8.29938
-8.2994
-8.29941
-8.29943
-8.29944
-8.29946
-8.29948
-8.29951
-8.29953
-8.29956
-8.29959
-8.29963
-8.29967
-8.29972
-8.29977
-8.29982
-8.29987
-8.29993
-8.29998
-8.30004
-8.3001
-8.30016
-8.30023
-8.30031
-8.40964
-8.40965
-8.40965
-8.40966
-8.40967
-8.40967
-8.40968
-8.40969
-8.40969
-8.4097
-8.40971
-8.40972
-8.40973
-8.40974
-8.40975
-8.40976
-8.40977
-8.40977
-8.40978
-8.40978
-8.40977
-8.40975
-8.4097
-8.40961
-8.40945
-8.40921
-8.40908
-8.41011
-8.41166
-8.41209
-8.41122
-8.41076
-8.41057
-8.41048
-8.41055
-8.41048
-8.41021
-8.40964
-8.40965
-8.40965
-8.40966
-8.40967
-8.40967
-8.40968
-8.40969
-8.40969
-8.4097
-8.40971
-8.40972
-8.40973
-8.40974
-8.40975
-8.40976
-8.40977
-8.40978
-8.40978
-8.40979
-8.40979
-8.40978
-8.40977
-8.40974
-8.40972
-8.40974
-8.40991
-8.41083
-8.41257
-8.41256
-8.41107
-8.41031
-8.41019
-8.41026
-8.41041
-8.41052
-8.41061
-8.40964
-8.40965
-8.40965
-8.40966
-8.40967
-8.40967
-8.40968
-8.40969
-8.40969
-8.4097
-8.40971
-8.40972
-8.40973
-8.40974
-8.40975
-8.40976
-8.40977
-8.40978
-8.40979
-8.40979
-8.40979
-8.40979
-8.40977
-8.40975
-8.40972
-8.4097
-8.40976
-8.41002
-8.4104
-8.41053
-8.41044
-8.41039
-8.41038
-8.41038
-8.41044
-8.41053
-8.41066
-8.40964
-8.40965
-8.40965
-8.40966
-8.40967
-8.40967
-8.40968
-8.40969
-8.40969
-8.4097
-8.40971
-8.40972
-8.40973
-8.40974
-8.40975
-8.40976
-8.40977
-8.40978
-8.40979
-8.4098
-8.40981
-8.40983
-8.40984
-8.40987
-8.40992
-8.41001
-8.41019
-8.4105
-8.41091
-8.41099
-8.41074
-8.41055
-8.41046
-8.41044
-8.41048
-8.41054
-8.41066
-8.40964
-8.40965
-8.40965
-8.40966
-8.40967
-8.40967
-8.40968
-8.40969
-8.40969
-8.4097
-8.40971
-8.40972
-8.40973
-8.40974
-8.40975
-8.40976
-8.40978
-8.40979
-8.4098
-8.40981
-8.40982
-8.40984
-8.40985
-8.40986
-8.40987
-8.4099
-8.40996
-8.41005
-8.41015
-8.41022
-8.41025
-8.41028
-8.41033
-8.41037
-8.41044
-8.41053
-8.41064
-8.40964
-8.40965
-8.40965
-8.40966
-8.40967
-8.40967
-8.40968
-8.40969
-8.40969
-8.4097
-8.40971
-8.40972
-8.40973
-8.40974
-8.40975
-8.40977
-8.40978
-8.40979
-8.40981
-8.40982
-8.40984
-8.40986
-8.40989
-8.40993
-8.40998
-8.41006
-8.41017
-8.41031
-8.41046
-8.41053
-8.41052
-8.41049
-8.41048
-8.4105
-8.41054
-8.4106
-8.4107
-8.40964
-8.40965
-8.40965
-8.40966
-8.40967
-8.40967
-8.40968
-8.40969
-8.40969
-8.4097
-8.40971
-8.40972
-8.40973
-8.40974
-8.40975
-8.40977
-8.40978
-8.4098
-8.40981
-8.40983
-8.40985
-8.40987
-8.40989
-8.40992
-8.40995
-8.40998
-8.41002
-8.41008
-8.41013
-8.41018
-8.41023
-8.41028
-8.41034
-8.4104
-8.41047
-8.41056
-8.41065
-8.40964
-8.40965
-8.40965
-8.40966
-8.40967
-8.40967
-8.40968
-8.40969
-8.40969
-8.4097
-8.40971
-8.40972
-8.40973
-8.40974
-8.40976
-8.40977
-8.40978
-8.4098
-8.40982
-8.40983
-8.40986
-8.40988
-8.40991
-8.40995
-8.41
-8.41006
-8.41013
-8.41021
-8.41029
-8.41035
-8.4104
-8.41042
-8.41046
-8.4105
-8.41055
-8.41062
-8.4107
-8.40965
-8.40965
-8.40965
-8.40966
-8.40967
-8.40967
-8.40968
-8.40969
-8.4097
-8.4097
-8.40971
-8.40972
-8.40973
-8.40974
-8.40976
-8.40977
-8.40979
-8.4098
-8.40982
-8.40984
-8.40986
-8.40989
-8.40991
-8.40994
-8.40998
-8.41001
-8.41006
-8.4101
-8.41015
-8.4102
-8.41025
-8.4103
-8.41036
-8.41043
-8.4105
-8.41058
-8.41066
-8.40965
-8.40965
-8.40966
-8.40966
-8.40967
-8.40967
-8.40968
-8.40969
-8.4097
-8.4097
-8.40971
-8.40972
-8.40973
-8.40975
-8.40976
-8.40977
-8.40979
-8.4098
-8.40982
-8.40984
-8.40986
-8.40989
-8.40992
-8.40996
-8.41
-8.41005
-8.4101
-8.41016
-8.41022
-8.41027
-8.41033
-8.41037
-8.41042
-8.41048
-8.41054
-8.41061
-8.41069
-8.40965
-8.40965
-8.40966
-8.40966
-8.40967
-8.40967
-8.40968
-8.40969
-8.4097
-8.4097
-8.40971
-8.40972
-8.40973
-8.40975
-8.40976
-8.40977
-8.40979
-8.4098
-8.40982
-8.40984
-8.40987
-8.40989
-8.40992
-8.40995
-8.40999
-8.41003
-8.41007
-8.41012
-8.41016
-8.41021
-8.41027
-8.41032
-8.41038
-8.41045
-8.41051
-8.41059
-8.41067
-8.40965
-8.40965
-8.40966
-8.40966
-8.40967
-8.40967
-8.40968
-8.40969
-8.4097
-8.4097
-8.40971
-8.40972
-8.40973
-8.40975
-8.40976
-8.40977
-8.40979
-8.40981
-8.40982
-8.40984
-8.40987
-8.40989
-8.40992
-8.40996
-8.40999
-8.41004
-8.41008
-8.41013
-8.41018
-8.41023
-8.41029
-8.41034
-8.4104
-8.41046
-8.41052
-8.4106
-8.41067
-8.52001
-8.52001
-8.52002
-8.52002
-8.52003
-8.52003
-8.52004
-8.52005
-8.52006
-8.52006
-8.52007
-8.52008
-8.52009
-8.5201
-8.52011
-8.52012
-8.52013
-8.52014
-8.52014
-8.52015
-8.52014
-8.52013
-8.52009
-8.52002
-8.51992
-8.51978
-8.51972
-8.52042
-8.52175
-8.52232
-8.52189
-8.52127
-8.52091
-8.52082
-8.52084
-8.52076
-8.52063
-8.52001
-8.52001
-8.52002
-8.52002
-8.52003
-8.52003
-8.52004
-8.52005
-8.52006
-8.52006
-8.52007
-8.52008
-8.52009
-8.5201
-8.52011
-8.52012
-8.52013
-8.52014
-8.52015
-8.52015
-8.52015
-8.52015
-8.52014
-8.52013
-8.52012
-8.52016
-8.52031
-8.52087
-8.522
-8.52247
-8.52178
-8.52108
-8.52074
-8.52068
-8.52073
-8.5208
-8.52091
-8.52001
-8.52001
-8.52002
-8.52002
-8.52003
-8.52003
-8.52004
-8.52005
-8.52006
-8.52006
-8.52007
-8.52008
-8.52009
-8.5201
-8.52011
-8.52012
-8.52013
-8.52014
-8.52015
-8.52016
-8.52016
-8.52016
-8.52015
-8.52013
-8.52011
-8.52011
-8.52018
-8.52039
-8.52073
-8.52087
-8.52084
-8.52078
-8.52074
-8.52074
-8.52077
-8.52083
-8.52092
-8.52001
-8.52001
-8.52002
-8.52002
-8.52003
-8.52003
-8.52004
-8.52005
-8.52006
-8.52006
-8.52007
-8.52008
-8.52009
-8.5201
-8.52011
-8.52012
-8.52014
-8.52015
-8.52016
-8.52017
-8.52018
-8.52019
-8.52021
-8.52024
-8.52029
-8.52038
-8.52053
-8.52079
-8.52113
-8.52126
-8.52111
-8.52094
-8.52085
-8.52082
-8.52085
-8.52091
-8.52102
-8.52001
-8.52001
-8.52002
-8.52002
-8.52003
-8.52003
-8.52004
-8.52005
-8.52006
-8.52006
-8.52007
-8.52008
-8.52009
-8.5201
-8.52011
-8.52013
-8.52014
-8.52015
-8.52016
-8.52018
-8.52019
-8.5202
-8.52021
-8.52023
-8.52025
-8.52028
-8.52033
-8.52042
-8.52052
-8.52059
-8.52062
-8.52066
-8.52069
-8.52074
-8.5208
-8.52089
-8.521
-8.52001
-8.52001
-8.52002
-8.52002
-8.52003
-8.52003
-8.52004
-8.52005
-8.52006
-8.52007
-8.52007
-8.52008
-8.52009
-8.5201
-8.52012
-8.52013
-8.52014
-8.52015
-8.52017
-8.52018
-8.5202
-8.52022
-8.52025
-8.52029
-8.52034
-8.52042
-8.52052
-8.52065
-8.52079
-8.52087
-8.52087
-8.52085
-8.52085
-8.52086
-8.5209
-8.52097
-8.52106
-8.52001
-8.52001
-8.52002
-8.52002
-8.52003
-8.52004
-8.52004
-8.52005
-8.52006
-8.52007
-8.52007
-8.52008
-8.52009
-8.52011
-8.52012
-8.52013
-8.52014
-8.52016
-8.52017
-8.52019
-8.52021
-8.52023
-8.52026
-8.52028
-8.52031
-8.52035
-8.52039
-8.52044
-8.5205
-8.52055
-8.5206
-8.52065
-8.52071
-8.52077
-8.52084
-8.52092
-8.52102
-8.52001
-8.52001
-8.52002
-8.52002
-8.52003
-8.52004
-8.52004
-8.52005
-8.52006
-8.52007
-8.52007
-8.52008
-8.5201
-8.52011
-8.52012
-8.52013
-8.52015
-8.52016
-8.52018
-8.5202
-8.52022
-8.52024
-8.52027
-8.52031
-8.52036
-8.52042
-8.52049
-8.52057
-8.52064
-8.52071
-8.52075
-8.52078
-8.52082
-8.52086
-8.52091
-8.52098
-8.52106
-8.52001
-8.52001
-8.52002
-8.52002
-8.52003
-8.52004
-8.52004
-8.52005
-8.52006
-8.52007
-8.52008
-8.52009
-8.5201
-8.52011
-8.52012
-8.52013
-8.52015
-8.52016
-8.52018
-8.5202
-8.52022
-8.52025
-8.52028
-8.52031
-8.52034
-8.52038
-8.52042
-8.52046
-8.52051
-8.52056
-8.52061
-8.52067
-8.52073
-8.52079
-8.52086
-8.52094
-8.52103
-8.52001
-8.52001
-8.52002
-8.52002
-8.52003
-8.52004
-8.52004
-8.52005
-8.52006
-8.52007
-8.52008
-8.52009
-8.5201
-8.52011
-8.52012
-8.52013
-8.52015
-8.52017
-8.52018
-8.5202
-8.52023
-8.52025
-8.52028
-8.52032
-8.52036
-8.52041
-8.52046
-8.52052
-8.52058
-8.52063
-8.52068
-8.52073
-8.52078
-8.52084
-8.5209
-8.52097
-8.52105
-8.52001
-8.52001
-8.52002
-8.52002
-8.52003
-8.52004
-8.52004
-8.52005
-8.52006
-8.52007
-8.52008
-8.52009
-8.5201
-8.52011
-8.52012
-8.52013
-8.52015
-8.52017
-8.52019
-8.52021
-8.52023
-8.52026
-8.52028
-8.52032
-8.52035
-8.52039
-8.52043
-8.52048
-8.52053
-8.52058
-8.52063
-8.52069
-8.52075
-8.52081
-8.52088
-8.52096
-8.52104
-8.52001
-8.52001
-8.52002
-8.52002
-8.52003
-8.52004
-8.52004
-8.52005
-8.52006
-8.52007
-8.52008
-8.52009
-8.5201
-8.52011
-8.52012
-8.52014
-8.52015
-8.52017
-8.52019
-8.52021
-8.52023
-8.52026
-8.52029
-8.52032
-8.52036
-8.5204
-8.52044
-8.52049
-8.52054
-8.52059
-8.52065
-8.5207
-8.52076
-8.52082
-8.52089
-8.52096
-8.52104
-8.63037
-8.63037
-8.63038
-8.63038
-8.63039
-8.6304
-8.6304
-8.63041
-8.63042
-8.63043
-8.63043
-8.63044
-8.63045
-8.63046
-8.63047
-8.63048
-8.63049
-8.6305
-8.63051
-8.63051
-8.63051
-8.6305
-8.63048
-8.63043
-8.63037
-8.63031
-8.63031
-8.63077
-8.63181
-8.63246
-8.63221
-8.63172
-8.63145
-8.63128
-8.6312
-8.63111
-8.63101
-8.63037
-8.63037
-8.63038
-8.63038
-8.63039
-8.6304
-8.6304
-8.63041
-8.63042
-8.63043
-8.63043
-8.63044
-8.63045
-8.63046
-8.63047
-8.63048
-8.63049
-8.6305
-8.63051
-8.63052
-8.63052
-8.63052
-8.63052
-8.63052
-8.63052
-8.63057
-8.63071
-8.6311
-8.63183
-8.6322
-8.63181
-8.63138
-8.63116
-8.63107
-8.63108
-8.63113
-8.63125
-8.63037
-8.63037
-8.63038
-8.63038
-8.63039
-8.6304
-8.6304
-8.63041
-8.63042
-8.63043
-8.63044
-8.63044
-8.63045
-8.63046
-8.63047
-8.63048
-8.6305
-8.63051
-8.63052
-8.63052
-8.63053
-8.63053
-8.63053
-8.63052
-8.63051
-8.63052
-8.63059
-8.63077
-8.63105
-8.6312
-8.63118
-8.63111
-8.63109
-8.63108
-8.63111
-8.63116
-8.63126
-8.63037
-8.63037
-8.63038
-8.63038
-8.63039
-8.6304
-8.6304
-8.63041
-8.63042
-8.63043
-8.63044
-8.63044
-8.63045
-8.63046
-8.63048
-8.63049
-8.6305
-8.63051
-8.63052
-8.63053
-8.63054
-8.63056
-8.63058
-8.63061
-8.63066
-8.63074
-8.63088
-8.6311
-8.63137
-8.63151
-8.63143
-8.63129
-8.63122
-8.63119
-8.63121
-8.63127
-8.63139
-8.63037
-8.63037
-8.63038
-8.63038
-8.63039
-8.6304
-8.6304
-8.63041
-8.63042
-8.63043
-8.63044
-8.63045
-8.63046
-8.63047
-8.63048
-8.63049
-8.6305
-8.63051
-8.63053
-8.63054
-8.63055
-8.63057
-8.63058
-8.6306
-8.63062
-8.63065
-8.63071
-8.63079
-8.63088
-8.63095
-8.63099
-8.63102
-8.63106
-8.63111
-8.63117
-8.63125
-8.63135
-8.63037
-8.63037
-8.63038
-8.63038
-8.63039
-8.6304
-8.6304
-8.63041
-8.63042
-8.63043
-8.63044
-8.63045
-8.63046
-8.63047
-8.63048
-8.63049
-8.6305
-8.63052
-8.63053
-8.63055
-8.63057
-8.63059
-8.63062
-8.63065
-8.63071
-8.63078
-8.63088
-8.63099
-8.63112
-8.6312
-8.63122
-8.6312
-8.6312
-8.63122
-8.63126
-8.63133
-8.63143
-8.63037
-8.63037
-8.63038
-8.63039
-8.63039
-8.6304
-8.6304
-8.63041
-8.63042
-8.63043
-8.63044
-8.63045
-8.63046
-8.63047
-8.63048
-8.63049
-8.63051
-8.63052
-8.63054
-8.63055
-8.63057
-8.6306
-8.63062
-8.63065
-8.63068
-8.63071
-8.63076
-8.63081
-8.63086
-8.63092
-8.63097
-8.63102
-8.63107
-8.63114
-8.63121
-8.63129
-8.63139
-8.63037
-8.63037
-8.63038
-8.63039
-8.63039
-8.6304
-8.6304
-8.63041
-8.63042
-8.63043
-8.63044
-8.63045
-8.63046
-8.63047
-8.63048
-8.63049
-8.63051
-8.63052
-8.63054
-8.63056
-8.63058
-8.63061
-8.63064
-8.63067
-8.63072
-8.63078
-8.63084
-8.63092
-8.63099
-8.63106
-8.6311
-8.63114
-8.63117
-8.63122
-8.63127
-8.63134
-8.63143
-8.63037
-8.63037
-8.63038
-8.63039
-8.63039
-8.6304
-8.6304
-8.63041
-8.63042
-8.63043
-8.63044
-8.63045
-8.63046
-8.63047
-8.63048
-8.6305
-8.63051
-8.63053
-8.63054
-8.63056
-8.63059
-8.63061
-8.63064
-8.63067
-8.6307
-8.63074
-8.63078
-8.63083
-8.63087
-8.63092
-8.63098
-8.63103
-8.63109
-8.63116
-8.63123
-8.63131
-8.6314
-8.63037
-8.63037
-8.63038
-8.63039
-8.63039
-8.6304
-8.6304
-8.63041
-8.63042
-8.63043
-8.63044
-8.63045
-8.63046
-8.63047
-8.63048
-8.6305
-8.63051
-8.63053
-8.63055
-8.63057
-8.63059
-8.63061
-8.63064
-8.63068
-8.63072
-8.63077
-8.63082
-8.63088
-8.63093
-8.63099
-8.63104
-8.63109
-8.63114
-8.6312
-8.63126
-8.63134
-8.63142
-8.63037
-8.63037
-8.63038
-8.63039
-8.63039
-8.6304
-8.6304
-8.63041
-8.63042
-8.63043
-8.63044
-8.63045
-8.63046
-8.63047
-8.63048
-8.6305
-8.63051
-8.63053
-8.63055
-8.63057
-8.63059
-8.63062
-8.63065
-8.63068
-8.63071
-8.63075
-8.63079
-8.63084
-8.63089
-8.63094
-8.63099
-8.63105
-8.63111
-8.63117
-8.63124
-8.63132
-8.6314
-8.63037
-8.63037
-8.63038
-8.63039
-8.63039
-8.6304
-8.6304
-8.63041
-8.63042
-8.63043
-8.63044
-8.63045
-8.63046
-8.63047
-8.63048
-8.6305
-8.63051
-8.63053
-8.63055
-8.63057
-8.63059
-8.63062
-8.63065
-8.63068
-8.63072
-8.63076
-8.6308
-8.63085
-8.6309
-8.63095
-8.63101
-8.63106
-8.63112
-8.63118
-8.63125
-8.63133
-8.6314
-8.74073
-8.74074
-8.74074
-8.74075
-8.74075
-8.74076
-8.74077
-8.74077
-8.74078
-8.74079
-8.7408
-8.74081
-8.74082
-8.74083
-8.74084
-8.74085
-8.74086
-8.74087
-8.74087
-8.74088
-8.74088
-8.74088
-8.74086
-8.74084
-8.7408
-8.74078
-8.74082
-8.74114
-8.74182
-8.74229
-8.74225
-8.74197
-8.74172
-8.74157
-8.74147
-8.74138
-8.74131
-8.74073
-8.74074
-8.74074
-8.74075
-8.74075
-8.74076
-8.74077
-8.74077
-8.74078
-8.74079
-8.7408
-8.74081
-8.74082
-8.74083
-8.74084
-8.74085
-8.74086
-8.74087
-8.74088
-8.74088
-8.74089
-8.74089
-8.7409
-8.7409
-8.74092
-8.74097
-8.7411
-8.74138
-8.74185
-8.74212
-8.74195
-8.74169
-8.74152
-8.74144
-8.74144
-8.74147
-8.74159
-8.74073
-8.74074
-8.74074
-8.74075
-8.74075
-8.74076
-8.74077
-8.74077
-8.74078
-8.74079
-8.7408
-8.74081
-8.74082
-8.74083
-8.74084
-8.74085
-8.74086
-8.74087
-8.74088
-8.74089
-8.7409
-8.7409
-8.7409
-8.7409
-8.74091
-8.74093
-8.74099
-8.74115
-8.74138
-8.74152
-8.74153
-8.74149
-8.74146
-8.74145
-8.74146
-8.7415
-8.74159
-8.74073
-8.74074
-8.74074
-8.74075
-8.74075
-8.74076
-8.74077
-8.74077
-8.74078
-8.74079
-8.7408
-8.74081
-8.74082
-8.74083
-8.74084
-8.74085
-8.74086
-8.74087
-8.74088
-8.7409
-8.74091
-8.74093
-8.74095
-8.74098
-8.74102
-8.7411
-8.74123
-8.74141
-8.74163
-8.74176
-8.74172
-8.74163
-8.74157
-8.74155
-8.74156
-8.74163
-8.74175
-8.74073
-8.74074
-8.74074
-8.74075
-8.74075
-8.74076
-8.74077
-8.74077
-8.74078
-8.74079
-8.7408
-8.74081
-8.74082
-8.74083
-8.74084
-8.74085
-8.74086
-8.74088
-8.74089
-8.7409
-8.74092
-8.74093
-8.74095
-8.74097
-8.74099
-8.74103
-8.74108
-8.74116
-8.74125
-8.74132
-8.74136
-8.74139
-8.74143
-8.74147
-8.74153
-8.74161
-8.74171
-8.74073
-8.74074
-8.74074
-8.74075
-8.74075
-8.74076
-8.74077
-8.74077
-8.74078
-8.74079
-8.7408
-8.74081
-8.74082
-8.74083
-8.74084
-8.74085
-8.74087
-8.74088
-8.74089
-8.74091
-8.74093
-8.74095
-8.74098
-8.74102
-8.74107
-8.74114
-8.74123
-8.74133
-8.74144
-8.74152
-8.74155
-8.74155
-8.74156
-8.74158
-8.74162
-8.74169
-8.74179
-8.74073
-8.74074
-8.74074
-8.74075
-8.74075
-8.74076
-8.74077
-8.74077
-8.74078
-8.74079
-8.7408
-8.74081
-8.74082
-8.74083
-8.74084
-8.74085
-8.74087
-8.74088
-8.7409
-8.74092
-8.74094
-8.74096
-8.74098
-8.74101
-8.74104
-8.74108
-8.74112
-8.74118
-8.74123
-8.74128
-8.74133
-8.74138
-8.74144
-8.7415
-8.74157
-8.74165
-8.74175
-8.74073
-8.74074
-8.74074
-8.74075
-8.74075
-8.74076
-8.74077
-8.74077
-8.74078
-8.74079
-8.7408
-8.74081
-8.74082
-8.74083
-8.74084
-8.74086
-8.74087
-8.74089
-8.7409
-8.74092
-8.74094
-8.74097
-8.741
-8.74103
-8.74108
-8.74113
-8.7412
-8.74127
-8.74134
-8.74141
-8.74145
-8.74149
-8.74153
-8.74158
-8.74163
-8.74171
-8.74179
-8.74073
-8.74074
-8.74074
-8.74075
-8.74075
-8.74076
-8.74077
-8.74077
-8.74078
-8.74079
-8.7408
-8.74081
-8.74082
-8.74083
-8.74084
-8.74086
-8.74087
-8.74089
-8.74091
-8.74093
-8.74095
-8.74097
-8.741
-8.74103
-8.74107
-8.7411
-8.74115
-8.74119
-8.74124
-8.74129
-8.74134
-8.7414
-8.74146
-8.74152
-8.7416
-8.74168
-8.74176
-8.74073
-8.74074
-8.74074
-8.74075
-8.74075
-8.74076
-8.74077
-8.74077
-8.74078
-8.74079
-8.7408
-8.74081
-8.74082
-8.74083
-8.74084
-8.74086
-8.74087
-8.74089
-8.74091
-8.74093
-8.74095
-8.74098
-8.74101
-8.74104
-8.74108
-8.74113
-8.74118
-8.74123
-8.74129
-8.74135
-8.7414
-8.74145
-8.7415
-8.74156
-8.74163
-8.7417
-8.74178
-8.74073
-8.74074
-8.74074
-8.74075
-8.74075
-8.74076
-8.74077
-8.74077
-8.74078
-8.74079
-8.7408
-8.74081
-8.74082
-8.74083
-8.74084
-8.74086
-8.74087
-8.74089
-8.74091
-8.74093
-8.74095
-8.74098
-8.74101
-8.74104
-8.74108
-8.74111
-8.74116
-8.7412
-8.74125
-8.7413
-8.74135
-8.74141
-8.74147
-8.74154
-8.74161
-8.74169
-8.74177
-8.74073
-8.74074
-8.74074
-8.74075
-8.74075
-8.74076
-8.74077
-8.74077
-8.74078
-8.74079
-8.7408
-8.74081
-8.74082
-8.74083
-8.74084
-8.74086
-8.74087
-8.74089
-8.74091
-8.74093
-8.74095
-8.74098
-8.74101
-8.74104
-8.74108
-8.74112
-8.74116
-8.74121
-8.74126
-8.74131
-8.74137
-8.74142
-8.74148
-8.74155
-8.74162
-8.74169
-8.74177
-8.85109
-8.8511
-8.8511
-8.85111
-8.85111
-8.85112
-8.85113
-8.85113
-8.85114
-8.85115
-8.85116
-8.85117
-8.85118
-8.85119
-8.8512
-8.85121
-8.85122
-8.85123
-8.85124
-8.85125
-8.85125
-8.85125
-8.85125
-8.85124
-8.85123
-8.85123
-8.85129
-8.85152
-8.85198
-8.85234
-8.85236
-8.85216
-8.852
-8.85187
-8.85175
-8.85166
-8.85152
-8.85109
-8.8511
-8.8511
-8.85111
-8.85111
-8.85112
-8.85113
-8.85113
-8.85114
-8.85115
-8.85116
-8.85117
-8.85118
-8.85119
-8.8512
-8.85121
-8.85122
-8.85123
-8.85124
-8.85125
-8.85126
-8.85126
-8.85127
-8.85129
-8.85131
-8.85137
-8.85148
-8.85171
-8.85205
-8.85226
-8.85217
-8.85199
-8.85188
-8.85181
-8.85179
-8.8518
-8.85189
-8.85109
-8.8511
-8.8511
-8.85111
-8.85111
-8.85112
-8.85113
-8.85113
-8.85114
-8.85115
-8.85116
-8.85117
-8.85118
-8.85119
-8.8512
-8.85121
-8.85122
-8.85123
-8.85124
-8.85125
-8.85126
-8.85127
-8.85128
-8.85128
-8.8513
-8.85133
-8.85139
-8.85152
-8.85171
-8.85184
-8.85187
-8.85184
-8.85182
-8.8518
-8.85181
-8.85183
-8.85191
-8.85109
-8.8511
-8.8511
-8.85111
-8.85111
-8.85112
-8.85113
-8.85113
-8.85114
-8.85115
-8.85116
-8.85117
-8.85118
-8.85119
-8.8512
-8.85121
-8.85122
-8.85124
-8.85125
-8.85126
-8.85128
-8.85129
-8.85131
-8.85134
-8.85139
-8.85147
-8.85158
-8.85173
-8.85191
-8.85203
-8.85202
-8.85196
-8.85191
-8.8519
-8.85192
-8.85198
-8.8521
-8.85109
-8.8511
-8.8511
-8.85111
-8.85111
-8.85112
-8.85113
-8.85114
-8.85114
-8.85115
-8.85116
-8.85117
-8.85118
-8.85119
-8.8512
-8.85121
-8.85123
-8.85124
-8.85125
-8.85127
-8.85128
-8.8513