/*--------------------------------*- C++ -*----------------------------------*\
| =========                 |                                                 |
| \\      /  F ield         | OpenFOAM: The Open Source CFD Toolbox           |
|  \\    /   O peration     | Version:  2.3.1                                 |
|   \\  /    A nd           | Web:      www.OpenFOAM.org                      |
|    \\/     M anipulation  |                                                 |
\*---------------------------------------------------------------------------*/
FoamFile
{
    version     2.0;
    format      ascii;
    class       surfaceScalarField;
    location    "10";
    object      phi;
}
// * * * * * * * * * * * * * * * * * * * * * * * * * * * * * * * * * * * * * //

dimensions      [0 3 -1 0 0 0 0];

internalField   nonuniform List<scalar> 
107940
(
1.17502e-06
-5.41194e-09
-2.19957e-08
1.20453e-06
-5.8438e-09
-2.36658e-08
1.23629e-06
-6.30321e-09
-2.54532e-08
1.27044e-06
-6.78866e-09
-2.7359e-08
1.30712e-06
-7.30117e-09
-2.93835e-08
1.34649e-06
-7.84313e-09
-3.15299e-08
1.38871e-06
-8.4113e-09
-3.38063e-08
1.43393e-06
-8.99411e-09
-3.62201e-08
1.48227e-06
-9.57285e-09
-3.87727e-08
1.53385e-06
-1.01234e-08
-4.14557e-08
1.58871e-06
-1.06145e-08
-4.42458e-08
1.64681e-06
-1.09961e-08
-4.71026e-08
1.70796e-06
-1.11866e-08
-4.99639e-08
1.77175e-06
-1.10591e-08
-5.27321e-08
1.83741e-06
-1.04116e-08
-5.52462e-08
1.90356e-06
-8.90836e-09
-5.72374e-08
1.96777e-06
-5.96911e-09
-5.82452e-08
2.0258e-06
-5.87019e-10
-5.7444e-08
2.06989e-06
9.23664e-09
-5.33269e-08
2.08527e-06
2.74629e-08
-4.28382e-08
2.04226e-06
6.24039e-08
-1.93956e-08
1.87668e-06
1.3248e-07
3.30994e-08
1.43699e-06
2.81496e-07
1.58192e-07
3.2052e-07
6.20419e-07
4.96051e-07
-2.60381e-06
1.45398e-06
1.47035e-06
-1.1155e-05
3.82608e-06
4.72508e-06
-2.60097e-05
7.14164e-06
7.71305e-06
-3.32037e-05
4.23343e-06
2.96064e-06
-2.84024e-05
-2.19509e-06
-2.60629e-06
-2.7942e-05
-2.73495e-06
2.27455e-06
-3.21263e-05
-2.71504e-07
4.45581e-06
-2.86376e-05
1.97889e-08
-3.5085e-06
-2.15862e-05
-1.59025e-07
-6.89236e-06
-1.91748e-05
1.9646e-06
-4.37597e-06
-1.9267e-05
3.91869e-06
-3.82652e-06
-1.77618e-05
4.47895e-06
-5.9841e-06
3.6227e-06
-6.22715e-06
1.22858e-06
-6.02421e-09
-2.72971e-08
1.25863e-06
-6.51072e-09
-2.93882e-08
1.29098e-06
-7.02482e-09
-3.1626e-08
1.32577e-06
-7.56218e-09
-3.40139e-08
1.36315e-06
-8.12047e-09
-3.65585e-08
1.40327e-06
-8.69548e-09
-3.92763e-08
1.44632e-06
-9.27412e-09
-4.21827e-08
1.49244e-06
-9.83203e-09
-4.52842e-08
1.54178e-06
-1.0333e-08
-4.85808e-08
1.59445e-06
-1.0729e-08
-5.20668e-08
1.65052e-06
-1.09543e-08
-5.573e-08
1.70998e-06
-1.09098e-08
-5.95406e-08
1.77268e-06
-1.04412e-08
-6.34417e-08
1.83828e-06
-9.31317e-09
-6.73489e-08
1.90615e-06
-7.15556e-09
-7.11237e-08
1.97517e-06
-3.41977e-09
-7.45133e-08
2.04351e-06
2.81056e-09
-7.71201e-08
2.10813e-06
1.31079e-08
-7.83136e-08
2.16436e-06
2.99296e-08
-7.69197e-08
2.20485e-06
5.78773e-08
-7.09093e-08
2.21812e-06
1.0553e-07
-5.63986e-08
2.18696e-06
1.89553e-07
-2.59115e-08
2.08791e-06
3.44318e-07
3.62329e-08
1.90006e-06
6.43121e-07
1.65144e-07
1.67016e-06
1.24955e-06
4.34336e-07
1.9159e-06
2.5382e-06
1.04214e-06
2.5992e-06
4.70109e-06
1.75726e-06
3.22902e-06
5.03162e-06
-1.428e-06
2.63023e-06
2.70628e-06
-4.30258e-06
-2.69121e-07
1.26361e-06
-1.0992e-06
-4.70763e-06
1.35697e-06
2.81004e-06
-1.01276e-05
1.35552e-06
4.08421e-06
-1.48153e-05
1.47107e-06
3.05763e-06
-1.55433e-05
2.28519e-06
4.07459e-07
-1.30502e-05
3.39774e-06
-1.97222e-06
-9.44052e-06
4.7454e-06
-3.87611e-06
5.85174e-06
-6.61086e-06
1.23658e-06
-4.32414e-09
-2.96339e-08
1.26666e-06
-4.686e-09
-3.19133e-08
1.29905e-06
-5.06384e-09
-3.43504e-08
1.33389e-06
-5.44961e-09
-3.69491e-08
1.37133e-06
-5.83383e-09
-3.9725e-08
1.41154e-06
-6.20061e-09
-4.27047e-08
1.4547e-06
-6.52534e-09
-4.59051e-08
1.50097e-06
-6.77264e-09
-4.93309e-08
1.55051e-06
-6.89293e-09
-5.2979e-08
1.60344e-06
-6.81859e-09
-5.6844e-08
1.65986e-06
-6.45484e-09
-6.09203e-08
1.7198e-06
-5.66195e-09
-6.51856e-08
1.78318e-06
-4.23039e-09
-6.95918e-08
1.84978e-06
-1.84813e-09
-7.40647e-08
1.91916e-06
1.9368e-09
-7.84763e-08
1.99051e-06
7.88598e-09
-8.26532e-08
2.06245e-06
1.71319e-08
-8.62646e-08
2.13277e-06
3.15264e-08
-8.87315e-08
2.19762e-06
5.41431e-08
-8.90701e-08
2.25072e-06
9.02244e-08
-8.54488e-08
2.28214e-06
1.48712e-07
-7.45986e-08
2.2772e-06
2.44849e-07
-5.03515e-08
2.21761e-06
4.04902e-07
-9.92425e-10
2.08926e-06
6.72477e-07
9.89875e-08
1.92986e-06
1.11665e-06
2.92302e-07
2.00146e-06
1.81594e-06
6.50669e-07
2.68795e-06
2.82471e-06
1.18987e-06
3.55656e-06
2.85587e-06
1.30715e-06
4.04087e-06
1.12756e-06
1.09442e-06
4.1895e-06
-1.84572e-07
1.29955e-06
4.10222e-06
-3.31128e-08
1.47736e-06
3.43584e-06
5.35204e-07
1.48669e-06
2.11572e-06
1.02124e-06
1.76996e-06
2.09343e-07
1.58174e-06
2.60982e-06
-1.94745e-06
2.20546e-06
3.34907e-06
-3.37293e-06
2.97614e-06
3.19473e-06
3.75932e-06
1.78822e-06
1.2384e-06
-2.1871e-09
-3.00651e-08
1.26849e-06
-2.39161e-09
-3.23844e-08
1.30088e-06
-2.59833e-09
-3.48637e-08
1.33574e-06
-2.7945e-09
-3.75099e-08
1.37321e-06
-2.96225e-09
-4.03445e-08
1.41348e-06
-3.07561e-09
-4.33932e-08
1.45673e-06
-3.10156e-09
-4.66706e-08
1.50313e-06
-2.9975e-09
-5.01805e-08
1.55286e-06
-2.70634e-09
-5.39171e-08
1.60607e-06
-2.1477e-09
-5.78764e-08
1.66288e-06
-1.20989e-09
-6.20555e-08
1.72338e-06
2.66333e-10
-6.64337e-08
1.78759e-06
2.54616e-09
-7.09851e-08
1.85542e-06
5.96395e-09
-7.56446e-08
1.92665e-06
1.10439e-08
-8.03274e-08
2.00084e-06
1.85605e-08
-8.48741e-08
2.07735e-06
2.96794e-08
-8.90563e-08
2.1552e-06
4.61724e-08
-9.24892e-08
2.23318e-06
7.06901e-08
-9.45351e-08
2.31062e-06
1.0699e-07
-9.41985e-08
2.38796e-06
1.61432e-07
-9.00604e-08
2.46895e-06
2.4377e-07
-7.99116e-08
2.56625e-06
3.68373e-07
-6.07758e-08
2.71139e-06
5.55824e-07
-2.8481e-08
2.97446e-06
8.31209e-07
2.23613e-08
3.50551e-06
1.20266e-06
8.22298e-08
4.56824e-06
1.64344e-06
1.18542e-07
5.76128e-06
1.79622e-06
-1.33381e-07
6.14422e-06
1.35349e-06
-6.08873e-07
5.71302e-06
8.46734e-07
-6.00106e-07
5.2249e-06
6.98697e-07
-2.43693e-07
4.98505e-06
7.47494e-07
2.75681e-08
4.89303e-06
9.15574e-07
1.97685e-07
4.84535e-06
1.22505e-06
4.04376e-07
4.73886e-06
1.59305e-06
7.18902e-07
4.67107e-06
1.96987e-06
1.07406e-06
2.23388e-06
1.22777e-06
1.23881e-06
-2.83685e-10
-2.9825e-08
1.2689e-06
-3.48368e-10
-3.21353e-08
1.30131e-06
-4.00757e-10
-3.46084e-08
1.33619e-06
-4.23389e-10
-3.72547e-08
1.37372e-06
-3.93043e-10
-4.00942e-08
1.41407e-06
-2.79888e-10
-4.31449e-08
1.45743e-06
-4.82505e-11
-4.64186e-08
1.50401e-06
3.51793e-10
-4.99224e-08
1.55397e-06
9.79827e-10
-5.36533e-08
1.60751e-06
1.92215e-09
-5.76084e-08
1.66479e-06
3.30245e-09
-6.17902e-08
1.72596e-06
5.29854e-09
-6.61968e-08
1.79113e-06
8.16363e-09
-7.07878e-08
1.86035e-06
1.22575e-08
-7.55183e-08
1.93361e-06
1.80978e-08
-8.03157e-08
2.01082e-06
2.64364e-08
-8.50823e-08
2.0918e-06
3.8367e-08
-8.96644e-08
2.17628e-06
5.54842e-08
-9.37941e-08
2.26388e-06
8.01165e-08
-9.70248e-08
2.35377e-06
1.15714e-07
-9.86185e-08
2.44504e-06
1.67436e-07
-9.72701e-08
2.5377e-06
2.42079e-07
-9.09686e-08
2.63494e-06
3.47911e-07
-7.67819e-08
2.74792e-06
4.93701e-07
-5.08609e-08
2.90287e-06
6.84811e-07
-8.55223e-09
3.14461e-06
9.07724e-07
5.32009e-08
3.54152e-06
1.11749e-06
1.29034e-07
4.03229e-06
1.12623e-06
1.79224e-07
4.44489e-06
7.48907e-07
1.91978e-07
4.79631e-06
2.81463e-07
2.13854e-07
5.15276e-06
1.29655e-07
2.1259e-07
5.5016e-06
2.08819e-07
1.89833e-07
5.85524e-06
3.78137e-07
1.83802e-07
6.26372e-06
6.02e-07
2.14561e-07
6.7345e-06
8.57172e-07
2.65094e-07
7.28248e-06
1.11914e-06
3.02747e-07
1.32778e-06
3.03504e-07
1.2389e-06
1.32245e-09
-2.95286e-08
1.269e-06
1.37888e-09
-3.18314e-08
1.30144e-06
1.46171e-09
-3.42997e-08
1.33637e-06
1.59202e-09
-3.69456e-08
1.37397e-06
1.79436e-09
-3.9785e-08
1.41442e-06
2.09789e-09
-4.28299e-08
1.45792e-06
2.53925e-09
-4.60919e-08
1.50469e-06
3.16544e-09
-4.95774e-08
1.55492e-06
4.03782e-09
-5.3288e-08
1.60882e-06
5.24403e-09
-5.72256e-08
1.66661e-06
6.90985e-09
-6.13984e-08
1.72851e-06
9.21304e-09
-6.58081e-08
1.7947e-06
1.23993e-08
-7.04332e-08
1.86539e-06
1.6807e-08
-7.52336e-08
1.94073e-06
2.29112e-08
-8.01588e-08
2.02093e-06
3.13852e-08
-8.51466e-08
2.10622e-06
4.31766e-08
-9.01039e-08
2.19699e-06
5.95923e-08
-9.48697e-08
2.2939e-06
8.2394e-08
-9.91909e-08
2.39853e-06
1.13797e-07
-1.02711e-07
2.51461e-06
1.56391e-07
-1.05041e-07
2.64874e-06
2.13919e-07
-1.0597e-07
2.81207e-06
2.90003e-07
-1.05415e-07
3.02246e-06
3.8717e-07
-1.03862e-07
3.30636e-06
5.04195e-07
-1.03288e-07
3.69402e-06
6.2985e-07
-1.09785e-07
4.2097e-06
7.37164e-07
-1.35346e-07
4.77425e-06
7.67426e-07
-2.0575e-07
5.17064e-06
6.75775e-07
-3.23261e-07
5.31598e-06
5.42042e-07
-4.05922e-07
5.39705e-06
4.67748e-07
-4.19161e-07
5.53388e-06
4.70541e-07
-3.98553e-07
5.76505e-06
5.26277e-07
-3.79308e-07
6.10769e-06
6.22032e-07
-3.62672e-07
6.57572e-06
7.35646e-07
-3.46503e-07
7.18863e-06
8.48255e-07
-3.42029e-07
9.19529e-07
-3.6046e-07
1.23894e-06
2.80884e-09
-2.94199e-08
1.26907e-06
2.98768e-09
-3.17362e-08
1.30155e-06
3.20522e-09
-3.42206e-08
1.33654e-06
3.48423e-09
-3.68823e-08
1.37422e-06
3.84784e-09
-3.97351e-08
1.41478e-06
4.32242e-09
-4.27909e-08
1.45844e-06
4.94258e-09
-4.60617e-08
1.50541e-06
5.75273e-09
-4.95568e-08
1.55592e-06
6.81113e-09
-5.32823e-08
1.61021e-06
8.20052e-09
-5.72445e-08
1.66853e-06
1.00402e-08
-6.14537e-08
1.73116e-06
1.24957e-08
-6.59116e-08
1.79838e-06
1.57882e-08
-7.06028e-08
1.87047e-06
2.02156e-08
-7.55049e-08
1.94779e-06
2.61884e-08
-8.0594e-08
2.03074e-06
3.42758e-08
-8.58433e-08
2.11987e-06
4.5253e-08
-9.12029e-08
2.2159e-06
6.01411e-08
-9.65847e-08
2.3199e-06
8.025e-08
-1.01857e-07
2.43331e-06
1.07217e-07
-1.06824e-07
2.55774e-06
1.43154e-07
-1.11197e-07
2.69551e-06
1.90581e-07
-1.14432e-07
2.85043e-06
2.50927e-07
-1.15845e-07
3.02838e-06
3.24034e-07
-1.14811e-07
3.23755e-06
4.06016e-07
-1.10989e-07
3.48682e-06
4.85527e-07
-1.04946e-07
3.78221e-06
5.40596e-07
-9.88232e-08
4.111e-06
5.35601e-07
-9.69695e-08
4.44339e-06
4.44271e-07
-1.00881e-07
4.78099e-06
3.11659e-07
-1.07224e-07
5.14047e-06
2.2738e-07
-1.19106e-07
5.52683e-06
2.23593e-07
-1.39414e-07
5.94428e-06
2.74082e-07
-1.65255e-07
6.40422e-06
3.57419e-07
-1.95331e-07
6.91506e-06
4.55846e-07
-2.31036e-07
7.48834e-06
5.5334e-07
-2.78364e-07
6.21279e-07
-3.27421e-07
1.23894e-06
4.36433e-09
-2.95082e-08
1.2691e-06
4.6863e-09
-3.18587e-08
1.30163e-06
5.05918e-09
-3.43817e-08
1.33669e-06
5.50255e-09
-3.70777e-08
1.37446e-06
6.03649e-09
-3.9961e-08
1.41515e-06
6.68469e-09
-4.30477e-08
1.45896e-06
7.47891e-09
-4.63507e-08
1.50613e-06
8.45948e-09
-4.98809e-08
1.55692e-06
9.67839e-09
-5.36507e-08
1.61158e-06
1.12083e-08
-5.76704e-08
1.67042e-06
1.31525e-08
-6.19476e-08
1.73374e-06
1.56522e-08
-6.64804e-08
1.8019e-06
1.88942e-08
-7.12617e-08
1.87527e-06
2.3128e-08
-7.62908e-08
1.95434e-06
2.86919e-08
-8.15737e-08
2.03969e-06
3.60417e-08
-8.71125e-08
2.13205e-06
4.5774e-08
-9.28832e-08
2.2324e-06
5.86393e-08
-9.88455e-08
2.34205e-06
7.55421e-08
-1.04947e-07
2.46291e-06
9.74819e-08
-1.1112e-07
2.59799e-06
1.25401e-07
-1.17332e-07
2.75222e-06
1.60059e-07
-1.23705e-07
2.93217e-06
2.01674e-07
-1.30697e-07
3.14595e-06
2.49377e-07
-1.39121e-07
3.40216e-06
3.00229e-07
-1.50424e-07
3.70669e-06
3.48047e-07
-1.67055e-07
4.05661e-06
3.83231e-07
-1.92548e-07
4.4274e-06
3.94833e-07
-2.3002e-07
4.77189e-06
3.78528e-07
-2.7875e-07
5.06343e-06
3.49167e-07
-3.29049e-07
5.32958e-06
3.3054e-07
-3.69314e-07
5.61935e-06
3.3426e-07
-4.00434e-07
5.95963e-06
3.60203e-07
-4.26401e-07
6.36527e-06
4.03122e-07
-4.51344e-07
6.8455e-06
4.52656e-07
-4.77043e-07
7.40589e-06
5.01355e-07
-5.08404e-07
5.21786e-07
-5.43324e-07
1.23862e-06
5.94745e-09
-2.95615e-08
1.26882e-06
6.42863e-09
-3.19409e-08
1.3014e-06
6.97316e-09
-3.44963e-08
1.33653e-06
7.59121e-09
-3.72187e-08
1.37439e-06
8.29935e-09
-4.01248e-08
1.41519e-06
9.11896e-09
-4.32351e-08
1.45915e-06
1.0077e-08
-4.65604e-08
1.50652e-06
1.12073e-08
-5.01124e-08
1.55755e-06
1.25541e-08
-5.39099e-08
1.61255e-06
1.41776e-08
-5.79686e-08
1.67184e-06
1.61596e-08
-6.22962e-08
1.73577e-06
1.86095e-08
-6.68895e-08
1.80474e-06
2.16732e-08
-7.17494e-08
1.87922e-06
2.55473e-08
-7.68916e-08
1.95976e-06
3.04954e-08
-8.23433e-08
2.04706e-06
3.68583e-08
-8.81233e-08
2.142e-06
4.50638e-08
-9.42261e-08
2.24566e-06
5.56285e-08
-1.00648e-07
2.35944e-06
6.91475e-08
-1.07388e-07
2.48513e-06
8.62497e-08
-1.14461e-07
2.62489e-06
1.0753e-07
-1.21881e-07
2.78098e-06
1.3364e-07
-1.29679e-07
2.95551e-06
1.65032e-07
-1.37881e-07
3.15113e-06
2.00113e-07
-1.46356e-07
3.37059e-06
2.35967e-07
-1.55206e-07
3.61585e-06
2.67567e-07
-1.64779e-07
3.88713e-06
2.87598e-07
-1.75642e-07
4.18191e-06
2.88517e-07
-1.88464e-07
4.49621e-06
2.67641e-07
-2.03416e-07
4.83098e-06
2.34767e-07
-2.20362e-07
5.19097e-06
2.1039e-07
-2.39841e-07
5.58042e-06
2.07505e-07
-2.62694e-07
6.00265e-06
2.26959e-07
-2.88989e-07
6.46184e-06
2.62872e-07
-3.18943e-07
6.9603e-06
3.05252e-07
-3.51058e-07
7.50295e-06
3.50237e-07
-3.91531e-07
3.67538e-07
-4.20959e-07
1.23689e-06
6.98655e-09
-2.90474e-08
1.26712e-06
7.58149e-09
-3.13885e-08
1.29975e-06
8.24659e-09
-3.39027e-08
1.33494e-06
8.98041e-09
-3.65777e-08
1.37288e-06
9.79544e-09
-3.94322e-08
1.41377e-06
1.07097e-08
-4.24874e-08
1.45786e-06
1.17434e-08
-4.5751e-08
1.50538e-06
1.29216e-08
-4.92349e-08
1.55662e-06
1.42793e-08
-5.2962e-08
1.61188e-06
1.5864e-08
-5.69538e-08
1.67153e-06
1.77337e-08
-6.12218e-08
1.73594e-06
1.99624e-08
-6.57642e-08
1.80555e-06
2.26489e-08
-7.05867e-08
1.88088e-06
2.59305e-08
-7.57105e-08
1.96255e-06
2.99913e-08
-8.11685e-08
2.05134e-06
3.50591e-08
-8.69875e-08
2.14817e-06
4.14082e-08
-9.31793e-08
2.25421e-06
4.93585e-08
-9.97649e-08
2.37087e-06
5.92642e-08
-1.06778e-07
2.49992e-06
7.14783e-08
-1.14282e-07
2.64354e-06
8.62738e-08
-1.22362e-07
2.80465e-06
1.0367e-07
-1.31137e-07
2.98728e-06
1.23273e-07
-1.40869e-07
3.19529e-06
1.44329e-07
-1.52231e-07
3.43173e-06
1.65567e-07
-1.66033e-07
3.69773e-06
1.84787e-07
-1.8322e-07
3.99085e-06
1.99373e-07
-2.04898e-07
4.30375e-06
2.07354e-07
-2.31734e-07
4.62567e-06
2.08929e-07
-2.63213e-07
4.95018e-06
2.0782e-07
-2.9756e-07
5.28308e-06
2.09678e-07
-3.32191e-07
5.63789e-06
2.18447e-07
-3.65755e-07
6.02816e-06
2.34911e-07
-3.9822e-07
6.4629e-06
2.58158e-07
-4.30024e-07
6.94612e-06
2.82548e-07
-4.60517e-07
7.48005e-06
3.11021e-07
-4.94714e-07
3.09044e-07
-5.22599e-07
1.22896e-06
5.78152e-09
-2.67996e-08
1.25919e-06
6.28419e-09
-2.89326e-08
1.29182e-06
6.84233e-09
-3.12219e-08
1.32701e-06
7.4488e-09
-3.36599e-08
1.36496e-06
8.1108e-09
-3.62636e-08
1.40588e-06
8.84025e-09
-3.90515e-08
1.45e-06
9.64795e-09
-4.2029e-08
1.49759e-06
1.05479e-08
-4.52068e-08
1.54891e-06
1.15615e-08
-4.86062e-08
1.6043e-06
1.2718e-08
-5.22493e-08
1.66414e-06
1.405e-08
-5.61496e-08
1.72881e-06
1.5594e-08
-6.03076e-08
1.7988e-06
1.73992e-08
-6.47328e-08
1.87463e-06
1.95362e-08
-6.94435e-08
1.95699e-06
2.21019e-08
-7.44696e-08
2.04668e-06
2.52133e-08
-7.98419e-08
2.14467e-06
2.90045e-08
-8.55839e-08
2.25213e-06
3.36284e-08
-9.17344e-08
2.37049e-06
3.92504e-08
-9.83482e-08
2.50145e-06
4.60321e-08
-1.05513e-07
2.64698e-06
5.40969e-08
-1.13349e-07
2.80917e-06
6.34939e-08
-1.22014e-07
2.98993e-06
7.41954e-08
-1.31683e-07
3.19082e-06
8.58833e-08
-1.42441e-07
3.41338e-06
9.759e-08
-1.54589e-07
3.65855e-06
1.0793e-07
-1.68312e-07
3.9264e-06
1.15304e-07
-1.83778e-07
4.21639e-06
1.18406e-07
-2.0104e-07
4.52811e-06
1.17188e-07
-2.19985e-07
4.86255e-06
1.13748e-07
-2.40363e-07
5.22222e-06
1.11988e-07
-2.61989e-07
5.61042e-06
1.15107e-07
-2.8486e-07
6.03023e-06
1.23894e-07
-3.0879e-07
6.48516e-06
1.3771e-07
-3.34481e-07
6.97429e-06
1.5296e-07
-3.59539e-07
7.50548e-06
1.71971e-07
-3.92143e-07
1.72958e-07
-4.05725e-07
1.17544e-06
-2.17313e-08
1.20514e-06
-2.34115e-08
1.23719e-06
-2.52098e-08
1.27177e-06
-2.71281e-08
1.30906e-06
-2.91791e-08
1.34928e-06
-3.13771e-08
1.39265e-06
-3.3726e-08
1.43943e-06
-3.62326e-08
1.4899e-06
-3.89121e-08
1.5444e-06
-4.17782e-08
1.60329e-06
-4.48398e-08
1.66698e-06
-4.80997e-08
1.73595e-06
-5.15689e-08
1.81075e-06
-5.5264e-08
1.89206e-06
-5.92064e-08
1.98069e-06
-6.34209e-08
2.07763e-06
-6.79337e-08
2.18405e-06
-7.2792e-08
2.30136e-06
-7.80568e-08
2.43121e-06
-8.38199e-08
2.57551e-06
-9.02013e-08
2.73638e-06
-9.73737e-08
2.91615e-06
-1.05578e-07
3.11719e-06
-1.15156e-07
3.3411e-06
-1.26317e-07
3.58849e-06
-1.39467e-07
3.85875e-06
-1.54951e-07
4.15007e-06
-1.72915e-07
4.46039e-06
-1.93132e-07
4.78918e-06
-2.15036e-07
5.13897e-06
-2.37807e-07
5.51486e-06
-2.60784e-07
5.92211e-06
-2.83357e-07
6.36563e-06
-3.05809e-07
6.84455e-06
-3.25959e-07
7.36941e-06
-3.52885e-07
-3.54651e-07
1.26459e-06
-3.20611e-09
-4.73207e-08
1.29531e-06
-3.45179e-09
-5.09337e-08
1.32837e-06
-3.71144e-09
-5.48016e-08
1.36392e-06
-3.98233e-09
-5.89297e-08
1.40212e-06
-4.26178e-09
-6.33219e-08
1.44312e-06
-4.54764e-09
-6.79885e-08
1.4871e-06
-4.83483e-09
-7.29468e-08
1.5342e-06
-5.11275e-09
-7.82112e-08
1.58458e-06
-5.36451e-09
-8.37847e-08
1.63834e-06
-5.56672e-09
-8.96504e-08
1.69555e-06
-5.68509e-09
-9.57646e-08
1.75616e-06
-5.66424e-09
-1.02053e-07
1.82002e-06
-5.41856e-09
-1.084e-07
1.88672e-06
-4.81817e-09
-1.14615e-07
1.95552e-06
-3.65828e-09
-1.20393e-07
2.0251e-06
-1.60318e-09
-1.25218e-07
2.09315e-06
1.91688e-09
-1.28208e-07
2.15559e-06
7.91944e-09
-1.27806e-07
2.20509e-06
1.83154e-08
-1.21144e-07
2.22792e-06
3.69185e-08
-1.02579e-07
2.19717e-06
7.15837e-08
-6.02287e-08
2.05842e-06
1.3934e-07
3.25028e-08
1.69406e-06
2.79331e-07
2.43227e-07
8.54478e-07
5.82357e-07
7.53273e-07
-9.90813e-07
1.27734e-06
2.0383e-06
-5.24942e-06
3.04506e-06
5.93862e-06
-1.55624e-05
6.5575e-06
1.14685e-05
-2.68451e-05
6.82525e-06
7.41811e-06
-2.75011e-05
2.4703e-07
-2.19739e-06
-2.11547e-05
-4.66053e-06
5.88702e-07
-1.80616e-05
-4.33581e-06
5.69857e-06
-1.77778e-05
-3.17456e-06
-6.17783e-07
-1.72533e-05
-1.82788e-06
-5.58893e-06
-1.66551e-05
6.43854e-07
-5.61809e-06
-1.52973e-05
2.60125e-06
-7.78552e-06
-1.35529e-05
3.91988e-06
-1.16484e-05
5.0555e-06
-1.24573e-05
1.31196e-06
-3.96852e-09
-5.5576e-08
1.34323e-06
-4.27039e-09
-5.98441e-08
1.37689e-06
-4.58662e-09
-6.44135e-08
1.4131e-06
-4.91061e-09
-6.92943e-08
1.45202e-06
-5.23455e-09
-7.45027e-08
1.49381e-06
-5.55006e-09
-8.00674e-08
1.53865e-06
-5.84413e-09
-8.60134e-08
1.5867e-06
-6.09545e-09
-9.23531e-08
1.63812e-06
-6.27154e-09
-9.90876e-08
1.69301e-06
-6.32544e-09
-1.06205e-07
1.75147e-06
-6.18809e-09
-1.13682e-07
1.81348e-06
-5.75342e-09
-1.21458e-07
1.87891e-06
-4.86189e-09
-1.29429e-07
1.94744e-06
-3.27569e-09
-1.37427e-07
2.01847e-06
-6.31393e-10
-1.4518e-07
2.09093e-06
3.64045e-09
-1.5222e-07
2.16306e-06
1.04667e-08
-1.57792e-07
2.23195e-06
2.13385e-08
-1.60626e-07
2.29315e-06
3.8688e-08
-1.58494e-07
2.33977e-06
6.6933e-08
-1.47545e-07
2.36118e-06
1.14343e-07
-1.20565e-07
2.34199e-06
1.9656e-07
-6.39391e-08
2.26381e-06
3.4503e-07
4.87094e-08
2.11766e-06
6.2203e-07
2.71628e-07
1.95802e-06
1.161e-06
7.1031e-07
2.32074e-06
2.20281e-06
1.52168e-06
3.63815e-06
4.04724e-06
2.9501e-06
4.233e-06
4.81266e-06
-1.02673e-08
3.3439e-06
2.47502e-06
-5.64147e-06
1.71326e-06
2.21526e-07
-4.35062e-06
-6.10387e-09
2.76716e-07
-8.31234e-08
-1.58277e-06
7.48812e-07
1.7375e-06
-3.61124e-06
1.10238e-06
2.15585e-06
-5.01602e-06
1.28267e-06
1.17343e-06
-4.96962e-06
1.28021e-06
-6.97576e-07
-3.55061e-06
1.79344e-06
-3.16868e-06
2.81663e-06
-7.04642e-06
1.31683e-06
-3.22715e-09
-5.94053e-08
1.3481e-06
-3.47072e-09
-6.3982e-08
1.38176e-06
-3.72046e-09
-6.88803e-08
1.41798e-06
-3.96544e-09
-7.41122e-08
1.45692e-06
-4.1927e-09
-7.97062e-08
1.49875e-06
-4.38693e-09
-8.57027e-08
1.54366e-06
-4.52634e-09
-9.21294e-08
1.59181e-06
-4.5785e-09
-9.89984e-08
1.64337e-06
-4.49665e-09
-1.06309e-07
1.69846e-06
-4.21373e-09
-1.14052e-07
1.7572e-06
-3.63218e-09
-1.22213e-07
1.81961e-06
-2.60578e-09
-1.30747e-07
1.88565e-06
-9.23422e-10
-1.39563e-07
1.95509e-06
1.72842e-09
-1.48517e-07
2.02753e-06
5.82542e-09
-1.57372e-07
2.10219e-06
1.20934e-08
-1.65765e-07
2.17778e-06
2.16741e-08
-1.73062e-07
2.25218e-06
3.63965e-08
-1.78188e-07
2.32179e-06
5.92729e-08
-1.79266e-07
2.38071e-06
9.54098e-08
-1.72849e-07
2.41987e-06
1.53459e-07
-1.52871e-07
2.42631e-06
2.47984e-07
-1.08214e-07
2.38494e-06
4.03663e-07
-1.82613e-08
2.28864e-06
6.60413e-07
1.56912e-07
2.18183e-06
1.07847e-06
4.8163e-07
2.28517e-06
1.71318e-06
1.03696e-06
3.03371e-06
2.63315e-06
1.85542e-06
4.05593e-06
2.90872e-06
2.18887e-06
4.59385e-06
1.29839e-06
1.73312e-06
4.75471e-06
-5.04004e-07
1.86422e-06
4.8192e-06
-7.29795e-07
2.41938e-06
4.64527e-06
-2.64989e-07
2.67442e-06
4.2125e-06
2.18952e-07
3.08616e-06
3.60418e-06
6.58174e-07
3.84263e-06
2.77597e-06
9.45234e-07
4.51225e-06
2.04291e-06
1.2268e-06
4.49444e-06
1.5673e-06
2.92812e-06
1.31728e-06
-1.86083e-09
-6.04372e-08
1.34853e-06
-1.99965e-09
-6.5106e-08
1.38218e-06
-2.13235e-09
-7.01041e-08
1.4184e-06
-2.24442e-09
-7.54475e-08
1.45735e-06
-2.31873e-09
-8.11712e-08
1.49922e-06
-2.33394e-09
-8.73149e-08
1.54419e-06
-2.26048e-09
-9.39054e-08
1.59244e-06
-2.05632e-09
-1.00955e-07
1.64415e-06
-1.66478e-09
-1.0846e-07
1.69948e-06
-1.00775e-09
-1.16412e-07
1.75857e-06
2.55145e-11
-1.24801e-07
1.82151e-06
1.62547e-09
-1.33601e-07
1.88832e-06
4.01833e-09
-1.42741e-07
1.95895e-06
7.56288e-09
-1.52106e-07
2.03318e-06
1.27813e-08
-1.61519e-07
2.11064e-06
2.04473e-08
-1.70686e-07
2.19069e-06
3.17209e-08
-1.79153e-07
2.27242e-06
4.8351e-08
-1.86169e-07
2.35471e-06
7.29495e-08
-1.90503e-07
2.43695e-06
1.09216e-07
-1.90246e-07
2.51974e-06
1.63284e-07
-1.82674e-07
2.60694e-06
2.44543e-07
-1.63673e-07
2.71086e-06
3.66624e-07
-1.27653e-07
2.86167e-06
5.48597e-07
-6.74824e-08
3.12628e-06
8.12361e-07
2.38671e-08
3.63396e-06
1.16121e-06
1.26522e-07
4.62637e-06
1.5687e-06
1.90581e-07
5.83428e-06
1.73124e-06
-1.63814e-07
6.30742e-06
1.2902e-06
-1.07383e-06
5.91506e-06
7.12809e-07
-1.42455e-06
5.44147e-06
5.17098e-07
-1.017e-06
5.23831e-06
5.52316e-07
-5.86572e-07
5.25586e-06
6.84194e-07
-2.85109e-07
5.44432e-06
8.82865e-07
-8.77225e-09
5.73306e-06
1.08017e-06
2.9522e-07
6.21455e-06
1.2489e-06
5.70463e-07
1.2871e-06
6.62439e-07
1.31722e-06
-4.07382e-10
-6.02747e-08
1.34847e-06
-4.34727e-10
-6.49494e-08
1.38213e-06
-4.4255e-10
-6.99592e-08
1.41837e-06
-4.14447e-10
-7.5324e-08
1.45737e-06
-3.30932e-10
-8.10763e-08
1.4993e-06
-1.67277e-10
-8.72471e-08
1.54437e-06
1.104e-10
-9.38607e-08
1.59278e-06
5.50125e-10
-1.00932e-07
1.64471e-06
1.21359e-09
-1.08463e-07
1.70035e-06
2.18961e-09
-1.16452e-07
1.75989e-06
3.60365e-09
-1.24903e-07
1.82347e-06
5.63619e-09
-1.33793e-07
1.89123e-06
8.53986e-09
-1.43069e-07
1.96324e-06
1.26773e-08
-1.52641e-07
2.03951e-06
1.85688e-08
-1.6237e-07
2.11997e-06
2.6965e-08
-1.7206e-07
2.20447e-06
3.8952e-08
-1.814e-07
2.29279e-06
5.6107e-08
-1.89865e-07
2.38458e-06
8.07276e-08
-1.96599e-07
2.4792e-06
1.16201e-07
-2.00214e-07
2.57595e-06
1.67562e-07
-1.98305e-07
2.6753e-06
2.41418e-07
-1.87191e-07
2.78102e-06
3.45737e-07
-1.61621e-07
2.90474e-06
4.88836e-07
-1.14816e-07
3.0725e-06
6.75372e-07
-3.93222e-08
3.32749e-06
8.92126e-07
6.72953e-08
3.73451e-06
1.09623e-06
1.94476e-07
4.24498e-06
1.12475e-06
2.75254e-07
4.68072e-06
7.79895e-07
2.66542e-07
5.04192e-06
2.96011e-07
2.69454e-07
5.4005e-06
1.02216e-07
2.68887e-07
5.75558e-06
1.53916e-07
2.33152e-07
6.12238e-06
3.04318e-07
1.96884e-07
6.54876e-06
4.97287e-07
1.73753e-07
7.05663e-06
7.04058e-07
1.33342e-07
7.67063e-06
9.05482e-07
3.21632e-08
1.05576e-06
-1.62416e-07
1.31719e-06
9.39252e-10
-5.98769e-08
1.34846e-06
1.017e-09
-6.4547e-08
1.38215e-06
1.12687e-09
-6.95573e-08
1.41843e-06
1.2854e-09
-7.49287e-08
1.45749e-06
1.51305e-09
-8.06888e-08
1.49952e-06
1.83633e-09
-8.68624e-08
1.54472e-06
2.29026e-09
-9.34736e-08
1.59331e-06
2.92208e-09
-1.00537e-07
1.6455e-06
3.79656e-09
-1.0806e-07
1.7015e-06
5.00354e-09
-1.16047e-07
1.76155e-06
6.66879e-09
-1.24511e-07
1.82586e-06
8.96854e-09
-1.3345e-07
1.89465e-06
1.2148e-08
-1.42828e-07
1.96812e-06
1.65498e-08
-1.52574e-07
2.04647e-06
2.26546e-08
-1.62597e-07
2.12992e-06
3.11364e-08
-1.72771e-07
2.21874e-06
4.29328e-08
-1.82905e-07
2.31332e-06
5.93357e-08
-1.92678e-07
2.41437e-06
8.20868e-08
-2.01599e-07
2.52346e-06
1.1338e-07
-2.08981e-07
2.64426e-06
1.55784e-07
-2.14062e-07
2.78319e-06
2.1288e-07
-2.16365e-07
2.95105e-06
2.88162e-07
-2.15701e-07
3.16503e-06
3.83979e-07
-2.12979e-07
3.45021e-06
4.98893e-07
-2.11994e-07
3.83472e-06
6.21791e-07
-2.23962e-07
4.33993e-06
7.26361e-07
-2.70679e-07
4.89637e-06
7.57348e-07
-3.94787e-07
5.29898e-06
6.68341e-07
-6.14317e-07
5.4583e-06
5.28149e-07
-7.97384e-07
5.55339e-06
4.41298e-07
-8.53327e-07
5.70915e-06
4.31934e-07
-8.32336e-07
5.96462e-06
4.76229e-07
-8.06684e-07
6.33335e-06
5.58735e-07
-7.92849e-07
6.82533e-06
6.60009e-07
-7.94439e-07
7.45661e-06
7.61584e-07
-8.29411e-07
8.26516e-07
-9.09563e-07
1.31726e-06
2.19983e-09
-5.97001e-08
1.34855e-06
2.38122e-09
-6.43918e-08
1.38228e-06
2.60577e-09
-6.94283e-08
1.41862e-06
2.88826e-09
-7.4826e-08
1.45776e-06
3.24845e-09
-8.06098e-08
1.4999e-06
3.71224e-09
-8.6805e-08
1.54525e-06
4.31278e-09
-9.34358e-08
1.59404e-06
5.09512e-09
-1.00521e-07
1.64651e-06
6.12123e-09
-1.08074e-07
1.7029e-06
7.47648e-09
-1.16109e-07
1.76348e-06
9.27835e-09
-1.24642e-07
1.82852e-06
1.16881e-08
-1.33676e-07
1.89833e-06
1.49273e-08
-1.43189e-07
1.97322e-06
1.92997e-08
-1.53143e-07
2.05355e-06
2.52236e-08
-1.63496e-07
2.13976e-06
3.32683e-08
-1.74188e-07
2.23241e-06
4.41984e-08
-1.85114e-07
2.33224e-06
5.9022e-08
-1.96101e-07
2.44032e-06
7.90352e-08
-2.06892e-07
2.55814e-06
1.0586e-07
-2.17117e-07
2.6874e-06
1.4157e-07
-2.26242e-07
2.83052e-06
1.8864e-07
-2.33316e-07
2.99147e-06
2.48522e-07
-2.37153e-07
3.17631e-06
3.21044e-07
-2.36718e-07
3.39344e-06
4.02409e-07
-2.31633e-07
3.65193e-06
4.8166e-07
-2.23303e-07
3.95786e-06
5.37721e-07
-2.16117e-07
4.29937e-06
5.37161e-07
-2.18296e-07
4.64705e-06
4.54246e-07
-2.34466e-07
4.99846e-06
3.27692e-07
-2.58173e-07
5.3676e-06
2.44515e-07
-2.91462e-07
5.75983e-06
2.39206e-07
-3.3892e-07
6.181e-06
2.87674e-07
-3.97871e-07
6.64377e-06
3.6827e-07
-4.67636e-07
7.15945e-06
4.63745e-07
-5.50452e-07
7.73865e-06
5.5893e-07
-6.54906e-07
6.27104e-07
-7.69586e-07
1.31741e-06
3.39799e-09
-5.97558e-08
1.34874e-06
3.68533e-09
-6.44935e-08
1.38252e-06
4.02534e-09
-6.9582e-08
1.41893e-06
4.42832e-09
-7.50266e-08
1.45816e-06
4.91232e-09
-8.08534e-08
1.50041e-06
5.50106e-09
-8.70927e-08
1.54592e-06
6.22355e-09
-9.37688e-08
1.59492e-06
7.11964e-09
-1.00903e-07
1.64766e-06
8.245e-09
-1.0852e-07
1.70443e-06
9.67587e-09
-1.16638e-07
1.76552e-06
1.15138e-08
-1.25275e-07
1.83127e-06
1.3896e-08
-1.34431e-07
1.90202e-06
1.70097e-08
-1.44101e-07
1.97821e-06
2.11093e-08
-1.54285e-07
2.06031e-06
2.65388e-08
-1.6499e-07
2.14892e-06
3.37507e-08
-1.76209e-07
2.2448e-06
4.33324e-08
-1.87894e-07
2.34892e-06
5.60255e-08
-1.99973e-07
2.46263e-06
7.27274e-08
-2.12347e-07
2.58782e-06
9.44425e-08
-2.24892e-07
2.7275e-06
1.22102e-07
-2.37538e-07
2.88647e-06
1.56447e-07
-2.5049e-07
3.07119e-06
1.97697e-07
-2.64591e-07
3.2895e-06
2.44976e-07
-2.81361e-07
3.54964e-06
2.95356e-07
-3.03511e-07
3.85709e-06
3.42734e-07
-3.35575e-07
4.20857e-06
3.77688e-07
-3.83996e-07
4.58085e-06
3.89441e-07
-4.54585e-07
4.92996e-06
3.73241e-07
-5.46851e-07
5.22991e-06
3.42554e-07
-6.4386e-07
5.50798e-06
3.2074e-07
-7.23609e-07
5.81176e-06
3.2051e-07
-7.85523e-07
6.16773e-06
3.42796e-07
-8.37494e-07
6.58995e-06
3.828e-07
-8.88097e-07
7.0869e-06
4.31158e-07
-9.41399e-07
7.66319e-06
4.79918e-07
-1.00569e-06
5.05176e-07
-1.07724e-06
1.31758e-06
4.37923e-09
-5.96346e-08
1.34896e-06
4.75981e-09
-6.43967e-08
1.3828e-06
5.19943e-09
-6.95125e-08
1.41929e-06
5.70149e-09
-7.49764e-08
1.45861e-06
6.28153e-09
-8.08178e-08
1.50099e-06
6.95951e-09
-8.70712e-08
1.54665e-06
7.75848e-09
-9.37578e-08
1.59585e-06
8.71072e-09
-1.00902e-07
1.64886e-06
9.86336e-09
-1.08538e-07
1.70598e-06
1.12806e-08
-1.16692e-07
1.76753e-06
1.30424e-08
-1.25384e-07
1.8339e-06
1.5255e-08
-1.34615e-07
1.90549e-06
1.80637e-08
-1.44395e-07
1.98279e-06
2.16673e-08
-1.54752e-07
2.06639e-06
2.63293e-08
-1.65727e-07
2.15698e-06
3.23843e-08
-1.77346e-07
2.25543e-06
4.02541e-08
-1.89605e-07
2.36287e-06
5.045e-08
-2.02505e-07
2.48069e-06
6.35651e-08
-2.16049e-07
2.61071e-06
8.02323e-08
-2.30269e-07
2.75509e-06
1.01055e-07
-2.45215e-07
2.91616e-06
1.26652e-07
-2.60955e-07
3.09612e-06
1.57409e-07
-2.77552e-07
3.29773e-06
1.91928e-07
-2.94919e-07
3.52388e-06
2.27343e-07
-3.13344e-07
3.77668e-06
2.58746e-07
-3.3359e-07
4.05651e-06
2.79078e-07
-3.56856e-07
4.36088e-06
2.81081e-07
-3.8448e-07
4.68576e-06
2.62067e-07
-4.17116e-07
5.03128e-06
2.31181e-07
-4.54515e-07
5.40136e-06
2.08084e-07
-4.9726e-07
5.79991e-06
2.05681e-07
-5.46419e-07
6.23077e-06
2.24976e-07
-6.02024e-07
6.69869e-06
2.60237e-07
-6.64302e-07
7.20802e-06
3.02068e-07
-7.31295e-07
7.76089e-06
3.45832e-07
-8.10316e-07
3.65878e-07
-8.79045e-07
1.31722e-06
4.67696e-09
-5.84906e-08
1.34866e-06
5.09295e-09
-6.31623e-08
1.38257e-06
5.56672e-09
-6.81801e-08
1.41914e-06
6.0943e-09
-7.35354e-08
1.45856e-06
6.6875e-09
-7.92593e-08
1.50105e-06
7.36139e-09
-8.53862e-08
1.54686e-06
8.13154e-09
-9.19337e-08
1.59625e-06
9.02066e-09
-9.89285e-08
1.64949e-06
1.00654e-08
-1.06409e-07
1.70692e-06
1.13153e-08
-1.14413e-07
1.76887e-06
1.2826e-08
-1.22963e-07
1.83576e-06
1.46682e-08
-1.32066e-07
1.90804e-06
1.69395e-08
-1.4174e-07
1.98624e-06
1.97771e-08
-1.52023e-07
2.07101e-06
2.33619e-08
-1.6297e-07
2.16312e-06
2.79152e-08
-1.74627e-07
2.26351e-06
3.37074e-08
-1.87025e-07
2.37336e-06
4.10555e-08
-2.00214e-07
2.49409e-06
5.03137e-08
-2.14263e-07
2.6275e-06
6.18346e-08
-2.29292e-07
2.77577e-06
7.58931e-08
-2.45474e-07
2.94183e-06
9.25164e-08
-2.63055e-07
3.1296e-06
1.11345e-07
-2.82581e-07
3.34293e-06
1.31615e-07
-3.05244e-07
3.58479e-06
1.52017e-07
-3.32568e-07
3.85628e-06
1.70375e-07
-3.66342e-07
4.15499e-06
1.84055e-07
-4.0858e-07
4.47379e-06
1.91009e-07
-4.60471e-07
4.80267e-06
1.91235e-07
-5.21258e-07
5.13574e-06
1.88177e-07
-5.87622e-07
5.47891e-06
1.87358e-07
-6.54635e-07
5.84553e-06
1.92897e-07
-7.19596e-07
6.24858e-06
2.05926e-07
-7.8222e-07
6.6967e-06
2.257e-07
-8.43602e-07
7.19417e-06