/*--------------------------------*- C++ -*----------------------------------*\
| =========                 |                                                 |
| \\      /  F ield         | OpenFOAM: The Open Source CFD Toolbox           |
|  \\    /   O peration     | Version:  2.3.1                                 |
|   \\  /    A nd           | Web:      www.OpenFOAM.org                      |
|    \\/     M anipulation  |                                                 |
\*---------------------------------------------------------------------------*/
FoamFile
{
    version     2.0;
    format      ascii;
    class       surfaceScalarField;
    location    "10";
    object      phi_0;
}
// * * * * * * * * * * * * * * * * * * * * * * * * * * * * * * * * * * * * * //

dimensions      [0 3 -1 0 0 0 0];

internalField   nonuniform List<scalar> 
107940
(
1.17499e-06
-5.41083e-09
-2.1994e-08
1.2045e-06
-5.84263e-09
-2.3664e-08
1.23625e-06
-6.30197e-09
-2.54513e-08
1.2704e-06
-6.78736e-09
-2.7357e-08
1.30708e-06
-7.29981e-09
-2.93815e-08
1.34645e-06
-7.84173e-09
-3.15279e-08
1.38866e-06
-8.40988e-09
-3.38042e-08
1.43387e-06
-8.9927e-09
-3.62181e-08
1.48222e-06
-9.57149e-09
-3.87708e-08
1.53379e-06
-1.01222e-08
-4.1454e-08
1.58865e-06
-1.06135e-08
-4.42444e-08
1.64675e-06
-1.09956e-08
-4.71016e-08
1.7079e-06
-1.11868e-08
-4.99636e-08
1.77169e-06
-1.10604e-08
-5.2733e-08
1.83735e-06
-1.04149e-08
-5.5249e-08
1.90351e-06
-8.91484e-09
-5.72431e-08
1.96775e-06
-5.98119e-09
-5.82558e-08
2.02582e-06
-6.07934e-10
-5.74633e-08
2.06998e-06
9.19672e-09
-5.33606e-08
2.0855e-06
2.73876e-08
-4.29001e-08
2.04276e-06
6.2256e-08
-1.95159e-08
1.87774e-06
1.32175e-07
3.28424e-08
1.43932e-06
2.80833e-07
1.57581e-07
3.26273e-07
6.18796e-07
4.94256e-07
-2.58846e-06
1.44992e-06
1.46481e-06
-1.11134e-05
3.81461e-06
4.71029e-06
-2.59679e-05
7.13863e-06
7.7159e-06
-3.32148e-05
4.2577e-06
2.9892e-06
-2.84288e-05
-2.18293e-06
-2.60304e-06
-2.79348e-05
-2.74328e-06
2.24928e-06
-3.21291e-05
-2.77416e-07
4.47175e-06
-2.86702e-05
2.4169e-08
-3.48314e-06
-2.16119e-05
-1.60074e-07
-6.89819e-06
-1.91813e-05
1.95774e-06
-4.38835e-06
-1.92707e-05
3.91635e-06
-3.8269e-06
-1.7771e-05
4.47981e-06
-5.9796e-06
3.62464e-06
-6.22775e-06
1.22854e-06
-6.02287e-09
-2.72944e-08
1.25859e-06
-6.50932e-09
-2.93854e-08
1.29094e-06
-7.02336e-09
-3.1623e-08
1.32572e-06
-7.56067e-09
-3.40107e-08
1.3631e-06
-8.11894e-09
-3.65552e-08
1.40322e-06
-8.69395e-09
-3.92729e-08
1.44626e-06
-9.27263e-09
-4.21791e-08
1.49238e-06
-9.83064e-09
-4.52805e-08
1.54172e-06
-1.03319e-08
-4.85771e-08
1.59439e-06
-1.07282e-08
-5.20631e-08
1.65045e-06
-1.09541e-08
-5.57265e-08
1.70991e-06
-1.09105e-08
-5.95373e-08
1.7726e-06
-1.04434e-08
-6.3439e-08
1.83821e-06
-9.31763e-09
-6.73471e-08
1.90608e-06
-7.16361e-09
-7.11234e-08
1.97511e-06
-3.43325e-09
-7.45155e-08
2.04347e-06
2.78797e-09
-7.71263e-08
2.10812e-06
1.30715e-08
-7.83263e-08
2.16439e-06
2.98703e-08
-7.69435e-08
2.20495e-06
5.77767e-08
-7.09519e-08
2.21833e-06
1.05354e-07
-5.64758e-08
2.18732e-06
1.89232e-07
-2.6054e-08
2.0885e-06
3.43702e-07
3.59541e-08
1.90088e-06
6.41856e-07
1.64565e-07
1.67055e-06
1.247e-06
4.33251e-07
1.9141e-06
2.53232e-06
1.03874e-06
2.59721e-06
4.6958e-06
1.75972e-06
3.22911e-06
5.0383e-06
-1.41249e-06
2.63559e-06
2.71504e-06
-4.30445e-06
-2.58032e-07
1.26547e-06
-1.11512e-06
-4.69673e-06
1.35762e-06
2.80366e-06
-1.01163e-05
1.35777e-06
4.08593e-06
-1.48104e-05
1.47092e-06
3.06317e-06
-1.5549e-05
2.28344e-06
4.1289e-07
-1.30587e-05
3.39655e-06
-1.97054e-06
-9.4482e-06
4.7442e-06
-3.87486e-06
5.85086e-06
-6.60828e-06
1.23654e-06
-4.32303e-09
-2.96307e-08
1.26662e-06
-4.68486e-09
-3.19099e-08
1.29901e-06
-5.06268e-09
-3.43468e-08
1.33384e-06
-5.44846e-09
-3.69453e-08
1.37128e-06
-5.83271e-09
-3.97211e-08
1.41148e-06
-6.19957e-09
-4.27005e-08
1.45464e-06
-6.52445e-09
-4.59008e-08
1.5009e-06
-6.77201e-09
-4.93264e-08
1.55044e-06
-6.8927e-09
-5.29744e-08
1.60337e-06
-6.81896e-09
-5.68394e-08
1.65979e-06
-6.45614e-09
-6.09157e-08
1.71972e-06
-5.66464e-09
-6.51811e-08
1.7831e-06
-4.23515e-09
-6.95878e-08
1.8497e-06
-1.85598e-09
-7.40615e-08
1.91909e-06
1.92413e-09
-7.84743e-08
1.99044e-06
7.86599e-09
-8.26532e-08
2.0624e-06
1.71004e-08
-8.62681e-08
2.13273e-06
3.14767e-08
-8.87409e-08
2.19763e-06
5.40631e-08
-8.909e-08
2.2508e-06
9.00933e-08
-8.54869e-08
2.28233e-06
1.48495e-07
-7.46693e-08
2.27756e-06
2.44488e-07
-5.04824e-08
2.21819e-06
4.043e-07
-1.22921e-09
2.09004e-06
6.7148e-07
9.85191e-08
1.93052e-06
1.11504e-06
2.91474e-07
2.00037e-06
1.81336e-06
6.49116e-07
2.68512e-06
2.82258e-06
1.18846e-06
3.55461e-06
2.86019e-06
1.30862e-06
4.04046e-06
1.1344e-06
1.09478e-06
4.19004e-06
-1.83336e-07
1.29922e-06
4.10372e-06
-3.41865e-08
1.47813e-06
3.43892e-06
5.34772e-07
1.4878e-06
2.11981e-06
1.0205e-06
1.76954e-06
2.14344e-07
1.58075e-06
2.60815e-06
-1.94244e-06
2.20468e-06
3.34865e-06
-3.36965e-06
2.97515e-06
3.19627e-06
3.75834e-06
1.79129e-06
1.23836e-06
-2.1864e-09
-3.00617e-08
1.26844e-06
-2.39091e-09
-3.23808e-08
1.30084e-06
-2.59766e-09
-3.48599e-08
1.33569e-06
-2.79389e-09
-3.75059e-08
1.37316e-06
-2.96174e-09
-4.03403e-08
1.41342e-06
-3.07527e-09
-4.33888e-08
1.45667e-06
-3.10147e-09
-4.6666e-08
1.50307e-06
-2.99779e-09
-5.01756e-08
1.55279e-06
-2.70719e-09
-5.39121e-08
1.606e-06
-2.14936e-09
-5.78714e-08
1.6628e-06
-1.2127e-09
-6.20505e-08
1.72331e-06
2.6173e-10
-6.64287e-08
1.78751e-06
2.53909e-09
-7.09804e-08
1.85534e-06
5.95323e-09
-7.56405e-08
1.92656e-06
1.10278e-08
-8.03243e-08
2.00077e-06
1.85364e-08
-8.48726e-08
2.07728e-06
2.96435e-08
-8.90575e-08
2.15513e-06
4.61187e-08
-9.24945e-08
2.23313e-06
7.0611e-08
-9.45468e-08
2.31057e-06
1.06875e-07
-9.42195e-08
2.3879e-06
1.61255e-07
-9.00944e-08
2.46885e-06
2.43503e-07
-7.99644e-08
2.56605e-06
3.67964e-07
-6.08555e-08
2.71092e-06
5.55206e-07
-2.8598e-08
2.97345e-06
8.30317e-07
2.2199e-08
3.50324e-06
1.20151e-06
8.20579e-08
4.56446e-06
1.64256e-06
1.18797e-07
5.75921e-06
1.7972e-06
-1.31759e-07
6.14593e-06
1.35585e-06
-6.08157e-07
5.71528e-06
8.48294e-07
-6.00987e-07
5.22642e-06
6.9925e-07
-2.44578e-07
4.98618e-06
7.47875e-07
2.71421e-08
4.89379e-06
9.1552e-07
1.97366e-07
4.84618e-06
1.22456e-06
4.0381e-07
4.74023e-06
1.5926e-06
7.18022e-07
4.6729e-06
1.96959e-06
1.07289e-06
2.2337e-06
1.22698e-06
1.23877e-06
-2.83427e-10
-2.98215e-08
1.26886e-06
-3.48154e-10
-3.21317e-08
1.30127e-06
-4.00616e-10
-3.46045e-08
1.33615e-06
-4.2336e-10
-3.72506e-08
1.37367e-06
-3.93181e-10
-4.00899e-08
1.41401e-06
-2.80265e-10
-4.31404e-08
1.45737e-06
-4.89657e-11
-4.64138e-08
1.50394e-06
3.50589e-10
-4.99175e-08
1.55391e-06
9.77952e-10
-5.36482e-08
1.60744e-06
1.91933e-09
-5.76032e-08
1.66471e-06
3.29828e-09
-6.17849e-08
1.72588e-06
5.29247e-09
-6.61916e-08
1.79104e-06
8.15488e-09
-7.07828e-08
1.86026e-06
1.22449e-08
-7.55137e-08
1.93352e-06
1.80797e-08
-8.03118e-08
2.01073e-06
2.64103e-08
-8.50796e-08
2.09171e-06
3.83295e-08
-8.96637e-08
2.17619e-06
5.54301e-08
-9.37966e-08
2.2638e-06
8.0038e-08
-9.70322e-08
2.35371e-06
1.15599e-07
-9.86341e-08
2.445e-06
1.67266e-07
-9.73002e-08
2.53769e-06
2.41834e-07
-9.1022e-08
2.63495e-06
3.47571e-07
-7.6871e-08
2.74791e-06
4.93254e-07
-5.09999e-08
2.9027e-06
6.84273e-07
-8.75385e-09
3.14406e-06
9.07219e-07
5.29345e-08
3.54049e-06
1.11734e-06
1.28788e-07
4.03136e-06
1.12716e-06
1.79166e-07
4.44441e-06
7.50842e-07
1.91956e-07
4.79603e-06
2.82801e-07
2.13874e-07
5.1526e-06
1.29964e-07
2.12719e-07
5.50163e-06
2.08833e-07
1.90003e-07
5.85529e-06
3.77987e-07
1.83872e-07
6.26365e-06
6.01715e-07
2.14484e-07
6.7344e-06
8.56868e-07
2.64986e-07
7.28249e-06
1.11884e-06
3.02664e-07
1.32751e-06
3.03399e-07
1.23886e-06
1.32228e-09
-2.95251e-08
1.26896e-06
1.37863e-09
-3.18277e-08
1.30139e-06
1.46134e-09
-3.42958e-08
1.33632e-06
1.5915e-09
-3.69415e-08
1.37391e-06
1.79363e-09
-3.97807e-08
1.41436e-06
2.09687e-09
-4.28253e-08
1.45786e-06
2.53783e-09
-4.60871e-08
1.50462e-06
3.16349e-09
-4.95725e-08
1.55485e-06
4.03513e-09
-5.32829e-08
1.60875e-06
5.24033e-09
-5.72203e-08
1.66653e-06
6.90476e-09
-6.1393e-08
1.72842e-06
9.20601e-09
-6.58027e-08
1.79462e-06
1.23896e-08
-7.0428e-08
1.8653e-06
1.67935e-08
-7.52287e-08
1.94064e-06
2.28925e-08
-8.01543e-08
2.02083e-06
3.13592e-08
-8.51431e-08
2.10612e-06
4.31404e-08
-9.01018e-08
2.19688e-06
5.95422e-08
-9.48696e-08
2.29379e-06
8.2325e-08
-9.91938e-08
2.3984e-06
1.13705e-07
-1.02718e-07
2.51445e-06
1.56268e-07
-1.05052e-07
2.64851e-06
2.13758e-07
-1.05983e-07
2.81171e-06
2.89798e-07
-1.05428e-07
3.02191e-06
3.86919e-07
-1.03868e-07
3.30555e-06
5.03914e-07
-1.03277e-07
3.69289e-06
6.29603e-07
-1.09725e-07
4.20832e-06
7.37085e-07
-1.3518e-07
4.77321e-06
7.67709e-07
-2.05434e-07
5.17052e-06
6.76445e-07
-3.22909e-07
5.31644e-06
5.42666e-07
-4.0579e-07
5.39751e-06
4.68118e-07
-4.19228e-07
5.53424e-06
4.70738e-07
-3.98632e-07
5.76527e-06
5.26344e-07
-3.7939e-07
6.10777e-06
6.21995e-07
-3.62778e-07
6.57571e-06
7.35581e-07
-3.46647e-07
7.18855e-06
8.48219e-07
-3.42222e-07
9.1956e-07
-3.60688e-07
1.2389e-06
2.80823e-09
-2.94164e-08
1.26903e-06
2.98697e-09
-3.17325e-08
1.3015e-06
3.20438e-09
-3.42167e-08
1.33649e-06
3.4832e-09
-3.68782e-08
1.37417e-06
3.84656e-09
-3.97308e-08
1.41473e-06
4.32083e-09
-4.27863e-08
1.45838e-06
4.94056e-09
-4.60569e-08
1.50535e-06
5.75016e-09
-4.95517e-08
1.55585e-06
6.80781e-09
-5.32771e-08
1.61013e-06
8.1962e-09
-5.72392e-08
1.66845e-06
1.00345e-08
-6.14482e-08
1.73108e-06
1.24881e-08
-6.59061e-08
1.79829e-06
1.57781e-08
-7.05973e-08
1.87038e-06
2.02021e-08
-7.54996e-08
1.94769e-06
2.61703e-08
-8.0589e-08
2.03063e-06
3.42513e-08
-8.58389e-08
2.11975e-06
4.522e-08
-9.11993e-08
2.21578e-06
6.00968e-08
-9.65825e-08
2.31977e-06
8.01907e-08
-1.01856e-07
2.43317e-06
1.07138e-07
-1.06826e-07
2.55759e-06
1.43048e-07
-1.11204e-07
2.69535e-06
1.90443e-07
-1.14447e-07
2.85026e-06
2.50758e-07
-1.15871e-07
3.02819e-06
3.23846e-07
-1.14853e-07
3.23731e-06
4.05841e-07
-1.11048e-07
3.4865e-06
4.85428e-07
-1.05017e-07
3.78181e-06
5.4067e-07
-9.88942e-08
4.1106e-06
5.35943e-07
-9.70239e-08
4.44307e-06
4.44897e-07
-1.00921e-07
4.78073e-06
3.12259e-07
-1.07254e-07
5.14023e-06
2.27733e-07
-1.19117e-07
5.52663e-06
2.2375e-07
-1.39412e-07
5.9441e-06
2.74132e-07
-1.65256e-07
6.40404e-06
3.574e-07
-1.9534e-07
6.91487e-06
4.55799e-07
-2.3105e-07
7.48817e-06
5.53291e-07
-2.78371e-07
6.2127e-07
-3.27448e-07
1.2389e-06
4.3633e-09
-2.95047e-08
1.26906e-06
4.68515e-09
-3.1855e-08
1.30158e-06
5.05787e-09
-3.43778e-08
1.33664e-06
5.50104e-09
-3.70736e-08
1.37441e-06
6.03472e-09
-3.99566e-08
1.41509e-06
6.68258e-09
-4.30432e-08
1.4589e-06
7.47638e-09
-4.63458e-08
1.50607e-06
8.45641e-09
-4.98759e-08
1.55685e-06
9.67461e-09
-5.36454e-08
1.6115e-06
1.12036e-08
-5.7665e-08
1.67033e-06
1.31466e-08
-6.1942e-08
1.73365e-06
1.56446e-08
-6.64747e-08
1.8018e-06
1.88844e-08
-7.1256e-08
1.87517e-06
2.31153e-08
-7.62851e-08
1.95424e-06
2.86752e-08
-8.15682e-08
2.03958e-06
3.60199e-08
-8.71074e-08
2.13193e-06
4.57454e-08
-9.28786e-08
2.23227e-06
5.86021e-08
-9.88416e-08
2.34191e-06
7.5494e-08
-1.04944e-07
2.46274e-06
9.74213e-08
-1.11118e-07
2.59779e-06
1.25327e-07
-1.17332e-07
2.75197e-06
1.59974e-07
-1.23704e-07
2.93184e-06
2.0158e-07
-1.30692e-07
3.14551e-06
2.49282e-07
-1.39108e-07
3.4016e-06
3.00146e-07
-1.50395e-07
3.70603e-06
3.47999e-07
-1.67e-07
4.05591e-06
3.8325e-07
-1.92457e-07
4.4268e-06
3.94947e-07
-2.29897e-07
4.77157e-06
3.78737e-07
-2.78606e-07
5.06336e-06
3.49392e-07
-3.2893e-07
5.32962e-06
3.30716e-07
-3.69242e-07
5.6194e-06
3.34372e-07
-4.00395e-07
5.95965e-06
3.60258e-07
-4.26386e-07
6.36526e-06
4.03138e-07
-4.51346e-07
6.84547e-06
4.52656e-07
-4.77063e-07
7.40585e-06
5.01353e-07
-5.08439e-07
5.21825e-07
-5.43378e-07
1.23858e-06
5.94608e-09
-2.95581e-08
1.26877e-06
6.42711e-09
-3.19372e-08
1.30135e-06
6.97147e-09
-3.44924e-08
1.33648e-06
7.58931e-09
-3.72146e-08
1.37434e-06
8.29719e-09
-4.01204e-08
1.41513e-06
9.11649e-09
-4.32306e-08
1.45909e-06
1.00741e-08
-4.65556e-08
1.50645e-06
1.1204e-08
-5.01074e-08
1.55748e-06
1.25501e-08
-5.39047e-08
1.61247e-06
1.41728e-08
-5.79632e-08
1.67176e-06
1.61538e-08
-6.22907e-08
1.73568e-06
1.86023e-08
-6.68839e-08
1.80465e-06
2.16642e-08
-7.17436e-08
1.87911e-06
2.55359e-08
-7.68858e-08
1.95965e-06
3.0481e-08
-8.23376e-08
2.04694e-06
3.684e-08
-8.81177e-08
2.14187e-06
4.50404e-08
-9.42207e-08
2.24551e-06
5.55989e-08
-1.00643e-07
2.35928e-06
6.91104e-08
-1.07384e-07
2.48496e-06
8.6204e-08
-1.14457e-07
2.62469e-06
1.07474e-07
-1.21878e-07
2.78077e-06
1.33571e-07
-1.29677e-07
2.95528e-06
1.64953e-07
-1.37882e-07
3.15088e-06
2.00036e-07
-1.46363e-07
3.37034e-06
2.35908e-07
-1.55218e-07
3.61559e-06
2.6755e-07
-1.64797e-07
3.88685e-06
2.8765e-07
-1.75664e-07
4.18163e-06
2.88655e-07
-1.88487e-07
4.49595e-06
2.67859e-07
-2.03441e-07
4.83073e-06
2.35002e-07
-2.20388e-07
5.19073e-06
2.10577e-07
-2.39866e-07
5.5802e-06
2.07624e-07
-2.62719e-07
6.00245e-06
2.27022e-07
-2.89014e-07
6.46166e-06
2.62896e-07
-3.1897e-07
6.96015e-06
3.05258e-07
-3.51091e-07
7.50283e-06
3.50228e-07
-3.91559e-07
3.67565e-07
-4.21017e-07
1.23685e-06
6.98502e-09
-2.90441e-08
1.26708e-06
7.57981e-09
-3.1385e-08
1.29971e-06
8.24475e-09
-3.3899e-08
1.33489e-06
8.97837e-09
-3.65739e-08
1.37282e-06
9.79317e-09
-3.94281e-08
1.41372e-06
1.07072e-08
-4.24832e-08
1.4578e-06
1.17405e-08
-4.57465e-08
1.50531e-06
1.29183e-08
-4.92302e-08
1.55654e-06
1.42755e-08
-5.29571e-08
1.61181e-06
1.58595e-08
-5.69487e-08
1.67145e-06
1.77285e-08
-6.12165e-08
1.73585e-06
1.99561e-08
-6.57588e-08
1.80546e-06
2.26413e-08
-7.05812e-08
1.88078e-06
2.59214e-08
-7.57049e-08
1.96244e-06
2.998e-08
-8.11629e-08
2.05122e-06
3.50451e-08
-8.6982e-08
2.14804e-06
4.13909e-08
-9.31739e-08
2.25406e-06
4.93371e-08
-9.97595e-08
2.37071e-06
5.92382e-08
-1.06773e-07
2.49974e-06
7.14471e-08
-1.14277e-07
2.64333e-06
8.62378e-08
-1.22357e-07
2.80441e-06
1.03631e-07
-1.31132e-07
2.98699e-06
1.23236e-07
-1.40862e-07
3.19495e-06
1.44296e-07
-1.52219e-07
3.43132e-06
1.65543e-07
-1.66013e-07
3.69728e-06
1.84779e-07
-1.83188e-07
3.9904e-06
1.99387e-07
-2.04852e-07
4.30333e-06
2.07394e-07
-2.31674e-07
4.62535e-06
2.0899e-07
-2.63146e-07
4.94996e-06
2.07887e-07
-2.97494e-07
5.28294e-06
2.09734e-07
-3.32135e-07
5.63779e-06
2.18483e-07
-3.65712e-07
6.02808e-06
2.34927e-07
-3.9819e-07
6.46282e-06
2.58158e-07
-4.30008e-07
6.94605e-06
2.82543e-07
-4.60518e-07
7.48e-06
3.11002e-07
-4.94722e-07
3.09071e-07
-5.22634e-07
1.22893e-06
5.78031e-09
-2.67968e-08
1.25915e-06
6.28287e-09
-2.89296e-08
1.29178e-06
6.8409e-09
-3.12188e-08
1.32696e-06
7.44723e-09
-3.36566e-08
1.36491e-06
8.10907e-09
-3.62602e-08
1.40582e-06
8.83833e-09
-3.90479e-08
1.44994e-06
9.64583e-09
-4.20252e-08
1.49752e-06
1.05455e-08
-4.52029e-08
1.54884e-06
1.15588e-08
-4.86022e-08
1.60423e-06
1.2715e-08
-5.22451e-08
1.66406e-06
1.40465e-08
-5.61453e-08
1.72873e-06
1.55899e-08
-6.03032e-08
1.7987e-06
1.73944e-08
-6.47282e-08
1.87453e-06
1.95305e-08
-6.9439e-08
1.95688e-06
2.20951e-08
-7.4465e-08
2.04656e-06
2.52051e-08
-7.98373e-08
2.14453e-06
2.89947e-08
-8.55793e-08
2.25198e-06
3.36166e-08
-9.17298e-08
2.37033e-06
3.92363e-08
-9.83437e-08
2.50127e-06
4.60156e-08
-1.05508e-07
2.64677e-06
5.4078e-08
-1.13344e-07
2.80894e-06
6.34728e-08
-1.22009e-07
2.98968e-06
7.41722e-08
-1.31677e-07
3.19055e-06
8.58607e-08
-1.42437e-07
3.4131e-06
9.75734e-08
-1.54584e-07
3.65827e-06
1.07925e-07
-1.68309e-07
3.92611e-06
1.15318e-07
-1.83776e-07
4.21611e-06
1.18441e-07
-2.01042e-07
4.52785e-06
1.17242e-07
-2.19991e-07
4.8623e-06
1.13808e-07
-2.40374e-07
5.222e-06
1.12041e-07
-2.62006e-07
5.61022e-06
1.15145e-07
-2.84882e-07
6.03005e-06
1.23916e-07
-3.08819e-07
6.485e-06
1.37719e-07
-3.34515e-07
6.97416e-06
1.52964e-07
-3.59582e-07
7.50538e-06
1.71963e-07
-3.92181e-07
1.72978e-07
-4.05808e-07
1.17541e-06
-2.17295e-08
1.20511e-06
-2.34097e-08
1.23715e-06
-2.52079e-08
1.27173e-06
-2.7126e-08
1.30901e-06
-2.9177e-08
1.34923e-06
-3.13749e-08
1.3926e-06
-3.37237e-08
1.43937e-06
-3.62303e-08
1.48984e-06
-3.89098e-08
1.54433e-06
-4.17758e-08
1.60322e-06
-4.48374e-08
1.6669e-06
-4.80974e-08
1.73586e-06
-5.15665e-08
1.81066e-06
-5.52617e-08
1.89196e-06
-5.92041e-08
1.98058e-06
-6.34187e-08
2.07751e-06
-6.79316e-08
2.18391e-06
-7.27899e-08
2.3012e-06
-7.80546e-08
2.43104e-06
-8.38176e-08
2.57531e-06
-9.01987e-08
2.73616e-06
-9.73704e-08
2.9159e-06
-1.05573e-07
3.11691e-06
-1.15149e-07
3.34079e-06
-1.26308e-07
3.58817e-06
-1.39455e-07
3.85843e-06
-1.54935e-07
4.14976e-06
-1.72896e-07
4.46012e-06
-1.93113e-07
4.78895e-06
-2.15019e-07
5.13878e-06
-2.37794e-07
5.5147e-06
-2.60779e-07
5.92198e-06
-2.83362e-07
6.36552e-06
-3.05822e-07
6.84447e-06
-3.25987e-07
7.36935e-06
-3.52909e-07
-3.54739e-07
1.26455e-06
-3.20546e-09
-4.73165e-08
1.29526e-06
-3.45111e-09
-5.09293e-08
1.32832e-06
-3.71072e-09
-5.47971e-08
1.36387e-06
-3.98159e-09
-5.8925e-08
1.40206e-06
-4.26103e-09
-6.3317e-08
1.44307e-06
-4.54688e-09
-6.79834e-08
1.48704e-06
-4.8341e-09
-7.29417e-08
1.53414e-06
-5.11208e-09
-7.8206e-08
1.58451e-06
-5.36396e-09
-8.37797e-08
1.63827e-06
-5.56637e-09
-8.96456e-08
1.69547e-06
-5.68506e-09
-9.57603e-08
1.75608e-06
-5.66471e-09
-1.0205e-07
1.81994e-06
-5.41982e-09
-1.08397e-07
1.88664e-06
-4.82066e-09
-1.14615e-07
1.95545e-06
-3.66276e-09
-1.20396e-07
2.02504e-06
-1.61093e-09
-1.25227e-07
2.09311e-06
1.9036e-09
-1.28226e-07
2.15559e-06
7.89641e-09
-1.27841e-07
2.20516e-06
1.82746e-08
-1.21207e-07
2.22811e-06
3.68433e-08
-1.02693e-07
2.19761e-06
7.14397e-08
-6.04493e-08
2.05934e-06
1.3905e-07
3.20576e-08
1.69597e-06
2.7872e-07
2.42226e-07
8.58617e-07
5.80951e-07
7.50663e-07
-9.8281e-07
1.27423e-06
2.03201e-06
-5.22729e-06
3.03615e-06
5.91862e-06
-1.55219e-05
6.54806e-06
1.14625e-05
-2.68268e-05
6.83879e-06
7.4553e-06
-2.75246e-05
2.73304e-07
-2.17852e-06
-2.11806e-05
-4.65618e-06
5.61406e-07
-1.80696e-05
-4.34232e-06
5.70311e-06
-1.77856e-05
-3.17648e-06
-5.90689e-07
-1.72633e-05
-1.8328e-06
-5.58763e-06
-1.6667e-05
6.38339e-07
-5.62309e-06
-1.53118e-05
2.60017e-06
-7.7822e-06
-1.35662e-05
3.92055e-06
-1.16458e-05
5.055e-06
-1.24613e-05
1.31191e-06
-3.96769e-09
-5.55703e-08
1.34318e-06
-4.26953e-09
-5.98381e-08
1.37684e-06
-4.58574e-09
-6.44071e-08
1.41305e-06
-4.90972e-09
-6.92876e-08
1.45196e-06
-5.23368e-09
-7.44956e-08
1.49375e-06
-5.54924e-09
-8.006e-08
1.53858e-06
-5.8434e-09
-8.60057e-08
1.58663e-06
-6.0949e-09
-9.23453e-08
1.63804e-06
-6.27126e-09
-9.90797e-08
1.69294e-06
-6.3256e-09
-1.06197e-07
1.75139e-06
-6.18892e-09
-1.13674e-07
1.81339e-06
-5.75526e-09
-1.21451e-07
1.87882e-06
-4.86526e-09
-1.29423e-07
1.94736e-06
-3.28142e-09
-1.37423e-07
2.01839e-06
-6.40665e-10
-1.45178e-07
2.09086e-06
3.62543e-09
-1.52224e-07
2.163e-06
1.04427e-08
-1.57804e-07
2.23192e-06
2.13006e-08
-1.6065e-07
2.29316e-06
3.86282e-08
-1.5854e-07
2.33985e-06
6.68327e-08
-1.47627e-07
2.36135e-06
1.1417e-07
-1.2071e-07
2.3423e-06
1.9625e-07
-6.42039e-08
2.26432e-06
3.44448e-07
4.82115e-08
2.11827e-06
6.2089e-07
2.70667e-07
1.95836e-06
1.15883e-06
7.08569e-07
2.31758e-06
2.19818e-06
1.51749e-06
3.63423e-06
4.04196e-06
2.94917e-06
4.23479e-06
4.8174e-06
8.34312e-09
3.34878e-06
2.48619e-06
-5.63132e-06
1.71827e-06
2.24847e-07
-4.36565e-06
-3.58112e-09
2.75795e-07
-9.26076e-08
-1.57955e-06
7.49041e-07
1.73638e-06
-3.60788e-06
1.10221e-06
2.1565e-06
-5.01571e-06
1.28293e-06
1.17612e-06
-4.97269e-06
1.28076e-06
-6.9416e-07
-3.5554e-06
1.79326e-06
-3.16486e-06
2.81567e-06
-7.04353e-06
1.31678e-06
-3.22641e-09
-5.93988e-08
1.34805e-06
-3.46997e-09
-6.39751e-08
1.38171e-06
-3.71972e-09
-6.88731e-08
1.41792e-06
-3.96473e-09
-7.41045e-08
1.45686e-06
-4.19207e-09
-7.96981e-08
1.49869e-06
-4.38641e-09
-8.56942e-08
1.54359e-06
-4.52601e-09
-9.21205e-08
1.59174e-06
-4.57847e-09
-9.89892e-08
1.64329e-06
-4.49706e-09
-1.06299e-07
1.69838e-06
-4.21481e-09
-1.14042e-07
1.75712e-06
-3.63425e-09
-1.22203e-07
1.81953e-06
-2.60929e-09
-1.30738e-07
1.88556e-06
-9.29065e-10
-1.39555e-07
1.955e-06
1.71959e-09
-1.4851e-07
2.02745e-06
5.81178e-09
-1.57368e-07
2.10211e-06
1.20723e-08
-1.65764e-07
2.17771e-06
2.16416e-08
-1.73069e-07
2.25213e-06
3.63459e-08
-1.78205e-07
2.32178e-06
5.91925e-08
-1.79303e-07
2.38077e-06
9.52793e-08
-1.72921e-07
2.42003e-06
1.53245e-07
-1.53003e-07
2.42662e-06
2.47633e-07
-1.08455e-07
2.38545e-06
4.03084e-07
-1.86962e-08
2.28928e-06
6.59469e-07
1.56108e-07
2.18233e-06
1.07698e-06
4.80271e-07
2.28403e-06
1.71095e-06
1.03464e-06
3.0303e-06
2.63089e-06
1.85326e-06
4.05356e-06
2.91191e-06
2.19085e-06
4.59364e-06
1.30616e-06
1.73474e-06
4.75523e-06
-5.00867e-07
1.86335e-06
4.82001e-06
-7.3054e-07
2.41968e-06
4.64698e-06
-2.65719e-07
2.67559e-06
4.21441e-06
2.18114e-07
3.0862e-06
3.60627e-06
6.57488e-07
3.84173e-06
2.77863e-06
9.45009e-07
4.51205e-06
2.04529e-06
1.22687e-06
4.496e-06
1.5672e-06
2.93174e-06
1.31723e-06
-1.86034e-09
-6.04304e-08
1.34848e-06
-1.99918e-09
-6.50987e-08
1.38213e-06
-2.13193e-09
-7.00964e-08
1.41834e-06
-2.24408e-09
-7.54393e-08
1.45729e-06
-2.31851e-09
-8.11626e-08
1.49916e-06
-2.33391e-09
-8.73059e-08
1.54412e-06
-2.26073e-09
-9.38959e-08
1.59237e-06
-2.05698e-09
-1.00945e-07
1.64408e-06
-1.66601e-09
-1.0845e-07
1.6994e-06
-1.00982e-09
-1.16402e-07
1.75849e-06
2.21481e-11
-1.24791e-07
1.82142e-06
1.62042e-09
-1.33591e-07
1.88823e-06
4.01075e-09
-1.42731e-07
1.95885e-06
7.5516e-09
-1.52098e-07
2.03309e-06
1.27646e-08
-1.61512e-07
2.11055e-06
2.04226e-08
-1.70683e-07
2.1906e-06
3.16844e-08
-1.79155e-07
2.27234e-06
4.82969e-08
-1.86179e-07
2.35464e-06
7.28701e-08
-1.90525e-07
2.43688e-06
1.09101e-07
-1.90287e-07
2.51966e-06
1.6311e-07
-1.8274e-07
2.60683e-06
2.44281e-07
-1.63774e-07
2.71063e-06
3.66227e-07
-1.27805e-07
2.8612e-06
5.48004e-07
-6.76987e-08
3.12529e-06
8.11516e-07
2.35801e-08
3.63185e-06
1.16016e-06
1.26283e-07
4.62267e-06
1.56789e-06
1.90987e-07
5.832e-06
1.73208e-06
-1.6127e-07
6.30878e-06
1.29271e-06
-1.07148e-06
5.9173e-06
7.14565e-07
-1.42494e-06
5.44307e-06
5.17649e-07
-1.01854e-06
5.23933e-06
5.52611e-07
-5.87446e-07
5.25633e-06
6.84196e-07
-2.85723e-07
5.44451e-06
8.82648e-07
-9.52701e-09
5.73327e-06
1.08008e-06
2.94198e-07
6.21481e-06
1.249e-06
5.69215e-07
1.28739e-06
6.61282e-07
1.31718e-06
-4.07216e-10
-6.02677e-08
1.34842e-06
-4.34613e-10
-6.49419e-08
1.38208e-06
-4.42516e-10
-6.99513e-08
1.41832e-06
-4.14533e-10
-7.53157e-08
1.45731e-06
-3.31191e-10
-8.10675e-08
1.49924e-06
-1.67783e-10
-8.72379e-08
1.5443e-06
1.09538e-10
-9.38511e-08
1.5927e-06
5.48778e-10
-1.00922e-07
1.64463e-06
1.21156e-09
-1.08452e-07
1.70027e-06
2.18662e-09
-1.16441e-07
1.7598e-06
3.59928e-09
-1.24893e-07
1.82338e-06
5.62991e-09
-1.33782e-07
1.89114e-06
8.53087e-09
-1.43059e-07
1.96314e-06
1.26644e-08
-1.52631e-07
2.03941e-06
1.85504e-08
-1.62362e-07
2.11987e-06
2.69386e-08
-1.72055e-07
2.20437e-06
3.89143e-08
-1.81399e-07
2.29269e-06
5.60527e-08
-1.89869e-07
2.38449e-06
8.06492e-08
-1.96613e-07
2.47911e-06
1.16086e-07
-2.00243e-07
2.57589e-06
1.67393e-07
-1.98362e-07
2.67527e-06
2.41176e-07
-1.87291e-07
2.78101e-06
3.45402e-07
-1.61785e-07
2.90468e-06
4.88397e-07
-1.15071e-07
3.07228e-06
6.74848e-07
-3.9685e-08
3.3269e-06
8.91638e-07
6.68362e-08
3.73345e-06
1.09606e-06
1.94064e-07
4.24396e-06
1.12556e-06
2.75174e-07
4.68017e-06
7.81804e-07
2.66647e-07
5.04161e-06
2.97472e-07
2.69524e-07
5.40031e-06
1.02611e-07
2.69059e-07
5.75557e-06
1.53955e-07
2.33405e-07
6.12238e-06
3.04198e-07
1.9706e-07
6.54863e-06
4.97074e-07
1.73805e-07
7.05641e-06
7.0387e-07
1.33412e-07
7.67041e-06
9.05354e-07
3.23142e-08
1.05571e-06
-1.62268e-07
1.31715e-06
9.39065e-10
-5.98698e-08
1.34841e-06
1.01673e-09
-6.45395e-08
1.38209e-06
1.12649e-09
-6.95494e-08
1.41837e-06
1.28488e-09
-7.49203e-08
1.45743e-06
1.51231e-09
-8.06799e-08
1.49945e-06
1.8353e-09
-8.68531e-08
1.54465e-06
2.28884e-09
-9.34639e-08
1.59323e-06
2.92012e-09
-1.00527e-07
1.64542e-06
3.79386e-09
-1.08049e-07
1.70142e-06
4.99983e-09
-1.16036e-07
1.76146e-06
6.66368e-09
-1.245e-07
1.82577e-06
8.96149e-09
-1.33439e-07
1.89455e-06
1.21383e-08
-1.42817e-07
1.96801e-06
1.65363e-08
-1.52564e-07
2.04636e-06
2.26359e-08
-1.62588e-07
2.12981e-06
3.11103e-08
-1.72764e-07
2.21863e-06
4.28966e-08
-1.829e-07
2.3132e-06
5.92856e-08
-1.92677e-07
2.41424e-06
8.20179e-08
-2.01604e-07
2.52332e-06
1.13288e-07
-2.08994e-07
2.64408e-06
1.55662e-07
-2.14083e-07
2.78294e-06
2.1272e-07
-2.16391e-07
2.95068e-06
2.87959e-07
-2.15727e-07
3.16447e-06
3.83733e-07
-2.12995e-07
3.4494e-06
4.98619e-07
-2.11976e-07
3.83362e-06
6.21552e-07
-2.23854e-07
4.3386e-06
7.26283e-07
-2.70385e-07
4.89534e-06
7.57615e-07
-3.94228e-07
5.29883e-06
6.69009e-07
-6.13603e-07
5.45875e-06
5.28802e-07
-7.9704e-07
5.55383e-06
4.41701e-07
-8.53396e-07
5.70947e-06
4.32158e-07
-8.32477e-07
5.96479e-06
4.76327e-07
-8.06833e-07
6.33337e-06
5.58739e-07
-7.93025e-07
6.82525e-06
6.59989e-07
-7.94648e-07
7.45645e-06
7.61591e-07
-8.29662e-07
8.26589e-07
-9.09854e-07
1.31721e-06
2.1993e-09
-5.9693e-08
1.3485e-06
2.38059e-09
-6.43843e-08
1.38222e-06
2.60501e-09
-6.94204e-08
1.41856e-06
2.88733e-09
-7.48176e-08
1.4577e-06
3.24728e-09
-8.0601e-08
1.49983e-06
3.71076e-09
-8.67956e-08
1.54518e-06
4.3109e-09
-9.3426e-08
1.59396e-06
5.09269e-09
-1.00511e-07
1.64643e-06
6.11806e-09
-1.08064e-07
1.70281e-06
7.47231e-09
-1.16098e-07
1.76339e-06
9.27283e-09
-1.24631e-07
1.82843e-06
1.16808e-08
-1.33665e-07
1.89823e-06
1.49174e-08
-1.43177e-07
1.97311e-06
1.92864e-08
-1.53132e-07
2.05344e-06
2.52056e-08
-1.63485e-07
2.13964e-06
3.32441e-08
-1.74179e-07
2.23228e-06
4.41656e-08
-1.85107e-07
2.3321e-06
5.8978e-08
-1.96096e-07
2.44018e-06
7.89762e-08
-2.06891e-07
2.55798e-06
1.05782e-07
-2.17121e-07
2.68723e-06
1.41464e-07
-2.26254e-07
2.83034e-06
1.88502e-07
-2.33343e-07
2.99128e-06
2.48354e-07
-2.37201e-07
3.17609e-06
3.20857e-07
-2.36794e-07
3.39317e-06
4.02233e-07
-2.31738e-07
3.65158e-06
4.81557e-07
-2.23429e-07
3.95742e-06
5.37783e-07
-2.16239e-07
4.29892e-06
5.37478e-07
-2.18382e-07
4.64668e-06
4.5484e-07
-2.34512e-07
4.99815e-06
3.28277e-07
-2.58198e-07
5.36732e-06
2.44866e-07
-2.91461e-07
5.7596e-06
2.39363e-07
-3.38898e-07
6.1808e-06
2.87725e-07
-3.9785e-07
6.64357e-06
3.68257e-07
-4.67623e-07
7.15924e-06
4.63709e-07
-5.50445e-07
7.73846e-06
5.58895e-07
-6.54892e-07
6.2711e-07
-7.696e-07
1.31736e-06
3.39716e-09
-5.97487e-08
1.34869e-06
3.68439e-09
-6.4486e-08
1.38247e-06
4.02426e-09
-6.95741e-08
1.41887e-06
4.42704e-09
-7.50182e-08
1.45809e-06
4.91081e-09
-8.08445e-08
1.50035e-06
5.49925e-09
-8.70834e-08
1.54585e-06
6.22134e-09
-9.3759e-08
1.59484e-06
7.11691e-09
-1.00893e-07
1.64758e-06
8.24158e-09
-1.08509e-07
1.70435e-06
9.67154e-09
-1.16627e-07
1.76543e-06
1.15083e-08
-1.25264e-07
1.83117e-06
1.38888e-08
-1.34419e-07
1.90192e-06
1.70003e-08
-1.44089e-07
1.9781e-06
2.10971e-08
-1.54274e-07
2.06019e-06
2.65227e-08
-1.64979e-07
2.1488e-06
3.37294e-08
-1.76199e-07
2.24466e-06
4.33044e-08
-1.87885e-07
2.34878e-06
5.59889e-08
-1.99965e-07
2.46247e-06
7.26799e-08
-2.12341e-07
2.58764e-06
9.43825e-08
-2.24889e-07
2.72728e-06
1.22028e-07
-2.37537e-07
2.88621e-06
1.56362e-07
-2.50489e-07
3.07085e-06
1.97604e-07
-2.64583e-07
3.28905e-06
2.44882e-07
-2.81337e-07
3.54907e-06
2.95273e-07
-3.03458e-07
3.85642e-06
3.42686e-07
-3.35475e-07
4.20787e-06
3.77706e-07
-3.83831e-07
4.58026e-06
3.89553e-07
-4.54359e-07
4.92962e-06
3.73449e-07
-5.46582e-07
5.22982e-06
3.42786e-07
-6.43635e-07
5.50799e-06
3.20928e-07
-7.23474e-07
5.81178e-06
3.20636e-07
-7.85454e-07
6.16772e-06
3.42868e-07
-8.37471e-07
6.58991e-06
3.82831e-07
-8.88108e-07
7.08682e-06
4.31173e-07
-9.41441e-07
7.6631e-06
4.79931e-07
-1.00576e-06
5.0522e-07
-1.07734e-06
1.31753e-06
4.37819e-09
-5.96277e-08
1.34891e-06
4.75866e-09
-6.43894e-08
1.38275e-06
5.19813e-09
-6.95047e-08
1.41923e-06
5.70001e-09
-7.49681e-08
1.45855e-06
6.27983e-09
-8.08091e-08
1.50092e-06
6.95753e-09
-8.70621e-08
1.54658e-06
7.75615e-09
-9.37481e-08
1.59577e-06
8.70793e-09
-1.00892e-07
1.64878e-06
9.85999e-09
-1.08527e-07
1.70589e-06
1.12764e-08
-1.16681e-07
1.76744e-06
1.30373e-08
-1.25373e-07
1.8338e-06
1.52486e-08
-1.34603e-07
1.90539e-06
1.80555e-08
-1.44383e-07
1.98268e-06
2.16568e-08
-1.5474e-07
2.06627e-06
2.63158e-08
-1.65715e-07
2.15685e-06
3.23669e-08
-1.77335e-07
2.25529e-06
4.02317e-08
-1.89594e-07
2.36271e-06
5.04214e-08
-2.02494e-07
2.48052e-06
6.3529e-08
-2.1604e-07
2.61052e-06
8.01875e-08
-2.30261e-07
2.75488e-06
1.01e-07
-2.45209e-07
2.91593e-06
1.26585e-07
-2.60951e-07
3.09587e-06
1.57332e-07
-2.77553e-07
3.29747e-06
1.91852e-07
-2.94929e-07
3.5236e-06
2.27283e-07
-3.13363e-07
3.77638e-06
2.58726e-07
-3.33619e-07
4.05619e-06
2.79125e-07
-3.56891e-07
4.36056e-06
2.81211e-07
-3.84517e-07
4.68545e-06
2.62274e-07
-4.17152e-07
5.03099e-06
2.31406e-07
-4.5455e-07
5.40108e-06
2.08264e-07
-4.97293e-07
5.79966e-06
2.05795e-07
-5.46451e-07
6.23053e-06
2.25035e-07
-6.02058e-07
6.69847e-06
2.60259e-07
-6.6434e-07
7.20783e-06
3.02073e-07
-7.31343e-07
7.76074e-06
3.45825e-07
-8.10364e-07
3.659e-07
-8.79134e-07
1.31717e-06
4.6759e-09
-5.8484e-08
1.34861e-06
5.09179e-09
-6.31553e-08
1.38252e-06
5.56542e-09
-6.81726e-08
1.41908e-06
6.09285e-09
-7.35275e-08
1.45849e-06
6.68586e-09
-7.9251e-08
1.50099e-06
7.35953e-09
-8.53775e-08
1.54679e-06
8.1294e-09
-9.19245e-08
1.59617e-06
9.01817e-09
-9.89189e-08
1.64941e-06
1.00624e-08
-1.06399e-07
1.70683e-06
1.13118e-08
-1.14402e-07
1.76878e-06
1.28218e-08
-1.22953e-07
1.83566e-06
1.4663e-08
-1.32055e-07
1.90793e-06
1.69331e-08
-1.41729e-07
1.98613e-06
1.97691e-08
-1.52012e-07
2.07088e-06
2.33518e-08
-1.62959e-07
2.16298e-06
2.79025e-08
-1.74616e-07
2.26336e-06
3.36914e-08
-1.87014e-07
2.37319e-06
4.10356e-08
-2.00203e-07
2.49391e-06
5.02891e-08
-2.14252e-07
2.6273e-06
6.18048e-08
-2.29282e-07
2.77555e-06
7.58583e-08
-2.45464e-07
2.94157e-06
9.24789e-08
-2.63045e-07
3.12929e-06
1.11308e-07
-2.82567e-07
3.34257e-06
1.31582e-07
-3.05221e-07
3.58437e-06
1.51994e-07
-3.32529e-07
3.85582e-06
1.70368e-07
-3.66281e-07
4.15452e-06
1.8407e-07
-4.08493e-07
4.47337e-06
1.9105e-07
-4.60361e-07
4.80233e-06
1.913e-07
-5.21134e-07
5.13549e-06
1.88249e-07
-5.87501e-07
5.47873e-06
1.87422e-07
-6.54535e-07
5.84539e-06
1.92944e-07
-7.19521e-07
6.24846e-06
2.05954e-07
-7.82173e-07
6.69658e-06
2.25712e-07
-8.43582e-07
7.19406e-06
2.47139e-07