/*--------------------------------*- C++ -*----------------------------------*\
| =========                 |                                                 |
| \\      /  F ield         | OpenFOAM: The Open Source CFD Toolbox           |
|  \\    /   O peration     | Version:  2.3.1                                 |
|   \\  /    A nd           | Web:      www.OpenFOAM.org                      |
|    \\/     M anipulation  |                                                 |
\*---------------------------------------------------------------------------*/
FoamFile
{
    version     2.0;
    format      ascii;
    class       volScalarField;
    location    "10";
    object      Sed;
}
// * * * * * * * * * * * * * * * * * * * * * * * * * * * * * * * * * * * * * //

dimensions      [0 0 0 0 0 0 0];

internalField   nonuniform List<scalar> 
37530
(
9.23074e-133
3.0393e-134
1.00382e-135
3.32085e-137
1.10134e-138
3.6651e-140
1.22478e-141
4.11252e-143
1.38837e-144
4.71544e-146
1.61223e-147
5.55219e-149
1.92671e-150
6.73917e-152
2.37599e-153
8.43985e-155
3.01761e-156
1.08479e-157
3.92815e-159
1.42549e-160
5.12992e-162
1.79525e-163
5.85216e-165
1.5839e-166
2.7405e-168
4.41095e-170
1.93666e-171
1.42627e-172
4.03849e-173
5.55016e-174
2.38143e-175
1.95022e-176
2.19265e-177
1.06058e-178
6.54896e-180
5.7118e-181
3.36675e-182
1.36542e-130
4.51134e-132
1.49499e-133
4.96007e-135
1.64871e-136
5.49608e-138
1.83892e-139
6.1797e-141
2.08706e-142
7.08836e-144
2.42255e-145
8.33643e-147
2.88999e-148
1.00976e-149
3.55675e-151
1.26314e-152
4.52294e-154
1.63301e-155
5.93067e-157
2.15846e-158
7.82297e-160
2.79254e-161
9.62719e-163
3.08779e-164
8.58793e-166
1.91419e-167
4.64321e-169
2.50659e-170
3.46332e-171
2.5801e-172
8.67018e-174
3.54457e-175
1.95078e-176
1.46427e-177
1.47477e-178
1.33002e-179
1.35141e-180
4.91868e-129
1.63329e-130
5.43871e-132
1.8126e-133
6.04939e-135
2.02387e-136
6.79357e-138
2.28963e-139
7.75296e-141
2.63926e-142
9.03843e-144
3.11587e-145
1.08196e-146
3.78642e-148
1.3362e-149
4.75685e-151
1.70814e-152
6.18361e-154
2.25395e-155
8.25207e-157
3.02097e-158
1.09722e-159
3.90145e-161
1.32695e-162
4.15117e-164
1.13819e-165
2.95477e-167
8.63917e-169
3.40304e-170
1.81358e-171
1.05546e-172
5.6693e-174
2.79915e-175
1.29046e-176
5.60165e-178
2.88761e-179
1.73328e-180
5.86807e-128
1.95932e-129
6.55926e-131
2.19716e-132
7.36759e-134
2.47573e-135
8.34434e-137
2.82302e-138
9.59313e-140
3.27654e-141
1.12556e-142
3.8915e-144
1.35506e-145
4.75512e-147
1.68251e-148
6.00513e-150
2.16256e-151
7.85743e-153
2.87913e-154
1.06285e-155
3.9464e-157
1.47059e-158
5.4863e-160
2.04627e-161
7.65243e-163
2.91579e-164
1.1803e-165
5.77464e-167
3.54907e-168
2.29512e-169
1.32401e-170
6.78409e-172
3.21977e-173
1.40059e-174
5.63295e-176
2.24657e-177
9.80311e-179
2.70848e-127
9.09034e-129
3.05852e-130
1.0295e-131
3.46825e-133
1.17062e-134
3.96226e-136
1.34594e-137
4.59153e-139
1.5741e-140
5.4269e-142
1.88287e-143
6.57872e-145
2.31644e-146
8.22516e-148
2.94695e-149
1.06593e-150
3.89386e-152
1.43679e-153
5.35442e-155
2.01416e-156
7.63864e-158
2.91564e-159
1.1181e-160
4.30621e-162
1.674e-163
6.66417e-165
2.8244e-166
1.31707e-167
6.61087e-169
3.48811e-170
1.9214e-171
1.09588e-172
6.39237e-174
3.79328e-175
2.30023e-176
1.45526e-177
5.46587e-127
1.84019e-128
6.21044e-130
2.09671e-131
7.08419e-133
2.3979e-134
8.13883e-136
2.77216e-137
9.48204e-139
3.25923e-140
1.1266e-141
3.91912e-143
1.37313e-144
4.84925e-146
1.72749e-147
6.21266e-149
2.25733e-150
8.29275e-152
3.08251e-153
1.16021e-154
4.4256e-156
1.71333e-157
6.74895e-159
2.71681e-160
1.12598e-161
4.86099e-163
2.22241e-164
1.10032e-165
5.95754e-167
3.4194e-168
1.98384e-169
1.1437e-170
6.61511e-172
3.90044e-173
2.38147e-174
1.53193e-175
1.05566e-176
5.46381e-127
1.83955e-128
6.20856e-130
2.09622e-131
7.08315e-133
2.39781e-134
8.13962e-136
2.7729e-137
9.48667e-139
3.26177e-140
1.12792e-141
3.92583e-143
1.37647e-144
4.86583e-146
1.73575e-147
6.25402e-149
2.27824e-150
8.39949e-152
3.13756e-153
1.18889e-154
4.57613e-156
1.79202e-157
7.15273e-159
2.91691e-160
1.21942e-161
5.25075e-163
2.34362e-164
1.09229e-165
5.3452e-167
2.74116e-168
1.47019e-169
8.25944e-171
4.86972e-172
3.01876e-173
1.97302e-174
1.36606e-175
1.00463e-176
2.70583e-127
9.0823e-129
3.0563e-130
1.02899e-131
3.46755e-133
1.17082e-134
3.9648e-136
1.34759e-137
4.60061e-139
1.57878e-140
5.45022e-142
1.89433e-143
6.63479e-145
2.34391e-146
8.36059e-148
3.01433e-149
1.0998e-150
4.06596e-152
1.5253e-153
5.81549e-155
2.25776e-156
8.94629e-158
3.62935e-159
1.51356e-160
6.52181e-162
2.92102e-163
1.36842e-164
6.73859e-166
3.48701e-167
1.8855e-168
1.05521e-169
6.07989e-171
3.61687e-172
2.23687e-173
1.44982e-174
9.9378e-176
7.25238e-177
5.85962e-128
1.95677e-129
6.5523e-131
2.19559e-132
7.36574e-134
2.47657e-135
8.35333e-137
2.8287e-138
9.62403e-140
3.29232e-141
1.13338e-142
3.92972e-144
1.37361e-145
4.84532e-147
1.72671e-148
6.22419e-150
2.27238e-151
8.41468e-153
3.16558e-154
1.21204e-155
4.73293e-157
1.88939e-158
7.73136e-160
3.25208e-161
1.4104e-162
6.32648e-164
2.94405e-165
1.42495e-166
7.18492e-168
3.77763e-169
2.07408e-170
1.1925e-171
7.19329e-173
4.56224e-174
3.04826e-175
2.15307e-176
1.60482e-177
4.91136e-129
1.63115e-130
5.43332e-132
1.81163e-133
6.04994e-135
2.0257e-136
6.80677e-138
2.29713e-139
7.79178e-141
2.65852e-142
9.13217e-144
3.16111e-145
1.10376e-146
3.89183e-148
1.38741e-149
5.0073e-151
1.83224e-152
6.8083e-154
2.57366e-155
9.91738e-157
3.90446e-158
1.57455e-159
6.52292e-161
2.78514e-162
1.22994e-163
5.6362e-165
2.68732e-166
1.33526e-167
6.91479e-169
3.72889e-170
2.09284e-171
1.2239e-172
7.47968e-174
4.79597e-175
3.23754e-176
2.31129e-177
1.74177e-178
1.36381e-130
4.50705e-132
1.49417e-133
4.96032e-135
1.65013e-136
5.50673e-138
1.84508e-139
6.21162e-141
2.10281e-142
7.16415e-144
2.45869e-145
8.50848e-147
2.9722e-148
1.0493e-149
3.74875e-151
1.35731e-152
4.98855e-154
1.86444e-155
7.10007e-157
2.76111e-158
1.09919e-159
4.49131e-161
1.88878e-162
8.19727e-164
3.68071e-165
1.71357e-166
8.28483e-168
4.16417e-169
2.17753e-170
1.1859e-171
6.73908e-173
4.00643e-174
2.49866e-175
1.63938e-176
1.13269e-177
8.27622e-179
6.3312e-180
9.22486e-133
3.03829e-134
1.00402e-135
3.32414e-137
1.1036e-138
3.67782e-140
1.2313e-141
4.14437e-143
1.40353e-144
4.78685e-146
1.64582e-147
5.71073e-149
2.00211e-150
7.10125e-152
2.55192e-153
9.3066e-155
3.45052e-156
1.30321e-157
5.02498e-159
1.98291e-160
8.0289e-162
3.34493e-163
1.43786e-164
6.39463e-166
2.9484e-167
1.41091e-168
7.00877e-170
3.61251e-171
1.93129e-172
1.07193e-173
6.19664e-175
3.74935e-176
2.38575e-177
1.60255e-178
1.13672e-179
8.54864e-181
6.70057e-182
4.1619e-131
1.37477e-132
4.55507e-134
1.51113e-135
5.02243e-137
1.67407e-138
5.60048e-140
1.88173e-141
6.35392e-143
2.15749e-144
7.37132e-146
2.53559e-147
8.78537e-149
3.06745e-150
1.07954e-151
3.82913e-153
1.36913e-154
4.93815e-156
1.79151e-157
6.50918e-159
2.35037e-160
8.31085e-162
2.79144e-163
8.29983e-165
1.99066e-166
3.41785e-168
1.01137e-169
5.58376e-171
6.13214e-172
1.69163e-172
1.24713e-173
6.96213e-175
5.23943e-176
2.74099e-177
1.85278e-178
1.37557e-179
7.03659e-181
5.18328e-129
1.71837e-130
5.71446e-132
1.90229e-133
6.34065e-135
2.11828e-136
7.09929e-138
2.38861e-139
8.0734e-141
2.74296e-142
9.37365e-144
3.22393e-145
1.1166e-146
3.89655e-148
1.37052e-149
4.86141e-151
1.73894e-152
6.26759e-154
2.27258e-155
8.26555e-157
3.00003e-158
1.07697e-159
3.76547e-161
1.24766e-162
3.74056e-164
1.01373e-165
2.65987e-167
9.57598e-169
8.22311e-170
6.68398e-171
3.65583e-172
1.65284e-173
9.20249e-175
5.94932e-176
4.33352e-177
3.24773e-178
2.54951e-179
1.69621e-127
5.65091e-129
1.88827e-130
6.31507e-132
2.11377e-133
7.08797e-135
2.38334e-136
8.04259e-138
2.72549e-139
9.28139e-141
3.17818e-142
1.09502e-143
3.79852e-145
1.32749e-146
4.67639e-148
1.66104e-149
5.94938e-151
2.1481e-152
7.81157e-154
2.85559e-155
1.04568e-156
3.81262e-158
1.37041e-159
4.7789e-161
1.57864e-162
4.87516e-164
1.50158e-165
4.79051e-167
1.81863e-168
9.50704e-170
6.01416e-171
3.08461e-172
1.43311e-173
6.64017e-175
3.10617e-176
1.52017e-177
8.45127e-179
1.94463e-126
6.5135e-128
2.18791e-129
7.35424e-131
2.47329e-132
8.32975e-134
2.81216e-135
9.52483e-137
3.23887e-138
1.10646e-139
3.79989e-141
1.31278e-142
4.56546e-144
1.59925e-145
5.64591e-147
2.00977e-148
7.21599e-150
2.61351e-151
9.54603e-153
3.51388e-154
1.30196e-155
4.84795e-157
1.81107e-158
6.78424e-160
2.55759e-161
9.85266e-163
4.01894e-164
1.90418e-165
1.08894e-166
6.71693e-168
3.87666e-169
2.0534e-170
1.02642e-171
4.89429e-173
2.28377e-174
1.06543e-175
5.2414e-177
8.87294e-126
2.98706e-127
1.00833e-128
3.40565e-130
1.15064e-131
3.89222e-133
1.3195e-134
4.48684e-136
1.53148e-137
5.25068e-139
1.80945e-140
6.27198e-142
2.18823e-143
7.68973e-145
2.72366e-146
9.72953e-148
3.5073e-149
1.27641e-150
4.69102e-152
1.74113e-153
6.52474e-155
2.46695e-156
9.40152e-158
3.6087e-159
1.39632e-160
5.4761e-162
2.20912e-163
9.46905e-165
4.43918e-166
2.23931e-167
1.18364e-168
6.49395e-170
3.68368e-171
2.15238e-172
1.29716e-173
8.10899e-175
5.33446e-176
1.78946e-125
6.04273e-127
2.046e-128
6.93092e-130
2.34848e-131
7.96648e-133
2.70808e-134
9.23303e-136
3.15965e-137
1.08605e-138
3.75215e-140
1.30392e-141
4.56126e-143
1.60738e-144
5.71069e-146
2.0471e-147
7.40997e-149
2.71056e-150
1.00277e-151
3.75491e-153
1.42449e-154
5.48293e-156
2.14634e-157
8.57963e-159
3.5256e-160
1.50505e-161
6.77023e-163
3.26867e-164
1.7088e-165
9.45121e-167
5.31869e-168
2.99963e-169
1.708e-170
9.954e-172
6.02071e-173
3.83542e-174
2.61017e-175
1.78889e-125
6.04093e-127
2.04548e-128
6.92956e-130
2.3482e-131
7.96628e-133
2.70834e-134
9.23531e-136
3.16106e-137
1.08682e-138
3.75614e-140
1.30593e-141
4.57123e-143
1.61231e-144
5.73518e-146
2.05933e-147
7.47145e-149
2.74175e-150
1.01876e-151
3.83759e-153
1.46754e-154
5.70629e-156
2.26034e-157
9.14349e-159
3.78995e-160
1.61724e-161
7.14797e-163
3.29512e-164
1.59231e-165
8.06064e-167
4.26379e-168
2.35727e-169
1.36398e-170
8.27635e-172
5.28165e-173
3.56071e-174
2.54655e-175
8.86513e-126
2.98469e-127
1.00768e-128
3.40411e-130
1.15042e-131
3.89275e-133
1.32022e-134
4.49163e-136
1.53414e-137
5.26445e-139
1.81634e-140
6.30593e-142
2.20484e-143
7.77109e-145
2.7637e-146
9.92812e-148
3.6067e-149
1.32667e-150
4.94799e-152
1.87407e-153
7.22159e-155
2.83754e-156
1.1402e-157
4.70315e-159
2.00081e-160
8.82686e-162
4.06125e-163
1.95753e-164
9.8867e-166
5.20696e-167
2.83895e-168
1.5963e-169
9.28205e-171
5.61606e-172
3.56169e-173
2.38665e-174
1.69928e-175
1.94214e-126
6.50597e-128
2.18585e-129
7.3496e-131
2.47272e-132
8.33216e-134
2.81481e-135
9.54174e-137
3.24811e-138
1.11119e-139
3.82336e-141
1.32423e-142
4.62104e-144
1.62629e-145
5.77837e-147
2.07525e-148
7.54299e-150
2.77865e-151
1.03901e-152
3.95057e-154
1.53049e-155
6.0552e-157
2.45289e-158
1.02022e-159
4.37013e-161
1.93401e-162
8.87058e-164
4.22807e-165
2.09804e-166
1.08493e-167
5.8534e-169
3.30057e-170
1.94924e-171
1.20848e-172
7.88288e-174
5.42737e-175
3.94455e-176
1.69387e-127
5.64402e-129
1.88651e-130
6.31178e-132
2.11383e-133
7.09323e-135
2.38731e-136
8.06546e-138
2.73743e-139
9.34087e-141
3.20718e-142
1.10901e-143
3.86587e-145
1.35992e-146
4.83332e-148
1.73778e-149
6.32953e-151
2.3391e-152
8.78567e-154
3.36043e-155
1.31176e-156
5.23877e-158
2.1465e-159
9.05165e-161
3.94155e-162
1.77804e-163
8.33133e-165
4.06187e-166
2.06144e-167
1.08857e-168
5.98044e-170
3.42294e-171
2.04705e-172
1.28404e-173
8.47623e-175
5.91174e-176
4.35318e-177
5.17678e-129
1.71657e-130
5.7106e-132
1.90202e-133
6.3443e-135
2.12151e-136
7.11892e-138
2.39904e-139
8.12542e-141
2.76818e-142
9.49433e-144
3.28148e-145
1.14409e-146
4.02837e-148
1.43426e-149
5.17087e-151
1.89062e-152
7.02241e-154
2.65484e-155
1.02371e-156
4.03574e-158
1.63074e-159
6.77231e-161
2.89846e-162
1.28177e-163
5.87054e-165
2.78991e-166
1.37759e-167
7.07415e-169
3.78171e-170
2.10796e-171
1.228e-172
7.49622e-174
4.80882e-175
3.24682e-176
2.31619e-177
1.73386e-178
4.15783e-131
1.3738e-132
4.55406e-134
1.51182e-135
5.02938e-137
1.67843e-138
5.62408e-140
1.89358e-141
6.41122e-143
2.18473e-144
7.50008e-146
2.59652e-147
9.07525e-149
3.20629e-150
1.14664e-151
4.15709e-153
1.53048e-154
5.73269e-156
2.18918e-157
8.54275e-159
3.41499e-160
1.40224e-161
5.93064e-163
2.59085e-164
1.17164e-165
5.49277e-167
2.67159e-168
1.34832e-169
7.06171e-171
3.84191e-172
2.17717e-173
1.29044e-174
8.0325e-176
5.26936e-177
3.6455e-178
2.67048e-179
2.04314e-180
7.28211e-130
2.41398e-131
8.02541e-133
2.67047e-134
8.8977e-136
2.97151e-137
9.95552e-139
3.34843e-140
1.13133e-141
3.84219e-143
1.31243e-144
4.51168e-146
1.56166e-147
5.44761e-149
1.91625e-150
6.79715e-152
2.43064e-153
8.75564e-155
3.1716e-156
1.15144e-157
4.16361e-159
1.48226e-160
5.07939e-162
1.59982e-163
4.35825e-165
8.64745e-167
2.07051e-168
9.15501e-170
6.984e-171
1.86517e-171
2.10696e-172
1.33743e-173
8.32892e-175
4.68159e-176
2.89564e-177
1.73595e-178
6.94554e-180
8.13623e-128
2.70663e-129
9.03115e-131
3.01608e-132
1.00806e-133
3.37495e-135
1.13293e-136
3.81628e-138
1.29083e-139
4.38702e-141
1.49903e-142
5.15294e-144
1.78308e-145
6.21558e-147
2.18345e-148
7.73144e-150
2.75941e-151
9.92223e-153
3.59023e-154
1.30423e-155
4.73731e-157
1.7085e-158
6.04749e-160
2.06196e-161
6.58579e-163
1.98087e-164
5.81919e-166
2.00892e-167
1.17051e-168
9.01535e-170
6.61544e-171
4.00076e-172
2.30112e-173
1.3513e-174
8.47131e-176
5.52543e-177
3.48522e-178
2.45783e-126
8.21518e-128
2.75376e-129
9.23895e-131
3.10103e-132
1.0421e-133
3.5096e-135
1.18557e-136
4.02007e-138
1.36919e-139
4.68698e-141
1.61364e-142
5.591e-144
1.9507e-145
6.85692e-147
2.42928e-148
8.67605e-150
3.12326e-151
1.13257e-152
4.13128e-154
1.51186e-155
5.5258e-157
2.00282e-158
7.12427e-160
2.45525e-161
8.21422e-163
2.7642e-164
9.87545e-166
3.88459e-167
1.89427e-168
1.1626e-169
6.46678e-171
3.29543e-172
1.59958e-173
7.88311e-175
4.062e-176
2.26576e-177
2.71785e-125
9.13208e-127
3.07655e-128
1.03732e-129
3.49811e-131
1.18061e-132
3.99169e-134
1.35324e-135
4.60354e-137
1.57256e-138
5.39765e-140
1.86282e-141
6.46817e-143
2.26107e-144
7.96206e-146
2.82579e-147
1.01118e-148
3.64913e-150
1.32797e-151
4.87134e-153
1.79983e-154
6.69098e-156
2.50051e-157
9.39686e-159
3.56592e-160
1.38593e-161
5.68685e-163
2.63531e-164
1.43699e-165
8.50277e-167
4.84591e-168
2.6051e-169
1.35268e-170
6.93869e-172
3.59672e-173
1.91081e-174
1.0616e-175
1.22793e-124
4.14643e-126
1.40364e-127
4.75501e-129
1.61082e-130
5.46e-132
1.85357e-133
6.30796e-135
2.15366e-136
7.38212e-138
2.5421e-139
8.80047e-141
3.06493e-142
1.07457e-143
3.79531e-145
1.35125e-146
4.85246e-148
1.75853e-149
6.43389e-151
2.37701e-152
8.86807e-154
3.3401e-155
1.26965e-156
4.8716e-158
1.89022e-159
7.46046e-161
3.03737e-162
1.31042e-163
6.13616e-165
3.08646e-166
1.62698e-167
8.8815e-169
5.00583e-170
2.91308e-171
1.75788e-172
1.10745e-173
7.35479e-175
2.47719e-124
8.39027e-126
2.8487e-127
9.67866e-129
3.28817e-130
1.11764e-131
3.80436e-133
1.29804e-134
4.44293e-136
1.52667e-137
5.27007e-139
1.82892e-140
6.38555e-142
2.24469e-143
7.95066e-145
2.83977e-146
1.02363e-147
3.72681e-149
1.37156e-150
5.10689e-152
1.92576e-153
7.36528e-155
2.86371e-156
1.1362e-157
4.62808e-159
1.95346e-160
8.64963e-162
4.07776e-163
2.06208e-164
1.09973e-165
5.99368e-167
3.29538e-168
1.83864e-169
1.05282e-170
6.26161e-172
3.91613e-173
2.60761e-174
2.47654e-124
8.38824e-126
2.84812e-127
9.67717e-129
3.28788e-130
1.11764e-131
3.80476e-133
1.29835e-134
4.4448e-136
1.52767e-137
5.27521e-139
1.83149e-140
6.39824e-142
2.25093e-143
7.98146e-145
2.85505e-146
1.03127e-147
3.76526e-149
1.3911e-150
5.20702e-152
1.97738e-153
7.63067e-155
2.99811e-156
1.20234e-157
4.93816e-159
2.08662e-160
9.12362e-162
4.15441e-163
1.97895e-164
9.86172e-166
5.12881e-167
2.78147e-168
1.57418e-169
9.31411e-171
5.77889e-172
3.77613e-173
2.61101e-174
1.227e-124
4.14362e-126
1.40287e-127
4.75321e-129
1.61057e-130
5.46074e-132
1.85449e-133
6.31402e-135
2.15703e-136
7.39952e-138
2.5508e-139
8.8433e-141
3.08586e-142
1.08479e-143
3.84542e-145
1.37599e-146
4.9756e-148
1.8204e-149
6.74784e-151
2.53808e-152
9.70419e-154
3.77978e-155
1.50392e-156
6.13426e-158
2.57607e-159
1.11937e-160
5.05871e-162
2.38723e-163
1.17706e-164
6.04038e-166
3.20737e-167
1.75773e-168
9.96918e-170
5.88452e-171
3.63835e-172
2.37192e-173
1.63897e-174
2.71489e-125
9.12318e-127
3.07414e-128
1.03678e-129
3.49754e-131
1.18096e-132
3.99518e-134
1.35543e-135
4.61543e-137
1.57862e-138
5.42761e-140
1.87741e-141
6.53897e-143
2.29546e-144
8.13004e-146
2.90848e-147
1.05226e-148
3.85529e-150
1.43259e-151
5.40823e-153
2.07827e-154
8.14755e-156
3.26676e-157
1.34329e-158
5.68174e-160
2.47988e-161
1.12042e-162
5.25442e-164
2.56263e-165
1.30111e-166
6.88349e-168
3.7998e-169
2.19261e-170
1.32547e-171
8.41472e-173
5.62669e-174
3.96871e-175
2.45485e-126
8.20647e-128
2.75155e-129
9.23487e-131
3.10116e-132
1.0428e-133
3.51484e-135
1.18859e-136
4.03581e-138
1.37702e-139
4.72508e-141
1.63196e-142
5.67863e-144
1.99277e-145
7.06048e-147
2.52879e-148
9.16805e-150
3.36959e-151
1.25758e-152
4.77494e-154
1.84835e-155
7.31173e-157
2.96375e-158
1.23469e-159
5.30342e-161
2.35602e-162
1.08537e-163
5.19428e-165
2.58419e-166
1.33639e-167
7.1851e-169
4.02228e-170
2.35125e-171
1.44037e-172
9.27736e-174
6.30399e-175
4.52121e-176
8.12656e-128
2.70394e-129
9.02522e-131
3.01555e-132
1.00853e-133
3.37938e-135
1.13567e-136
3.83093e-138
1.29816e-139
4.42258e-141
1.51603e-142
5.23389e-144
1.82161e-145
6.39848e-147
2.27101e-148
8.15576e-150
2.96793e-151
1.09622e-152
4.11707e-154
1.57547e-155
6.1566e-157
2.46296e-158
1.01136e-159
4.27431e-161
1.86414e-162
8.40997e-164
3.93274e-165
1.90913e-166
9.63119e-168
5.05445e-169
2.76352e-170
1.57754e-171
9.42658e-173
5.91331e-174
3.90184e-175
2.71669e-176
1.98886e-177
7.27425e-130
2.41199e-131
8.02234e-133
2.67108e-134
8.90705e-136
2.97789e-137
9.99111e-139
3.36659e-140
1.14018e-141
3.88443e-143
1.33243e-144
4.60627e-146
1.6066e-147
5.66022e-149
2.017e-150
7.28052e-152
2.66627e-153
9.92454e-155
3.76228e-156
1.45575e-157
5.76325e-159
2.34057e-160
9.77728e-162
4.21263e-163
1.87647e-164
8.65561e-166
4.13896e-167
2.05281e-168
1.05643e-169
5.64714e-171
3.1433e-172
1.82857e-173
1.11597e-174
7.16917e-176
4.85364e-177
3.47435e-178
2.60482e-179
6.7322e-129
2.23876e-130
7.46486e-132
2.49047e-133
8.3157e-135
2.78167e-136
9.33028e-138
3.14046e-139
1.06144e-140
3.60476e-142
1.23088e-143
4.22852e-145
1.46234e-146
5.09359e-148
1.78771e-149
6.32363e-151
2.25422e-152
8.09349e-154
2.92271e-155
1.05867e-156
3.8273e-158
1.36851e-159
4.76022e-161
1.56199e-162
4.62205e-164
1.13691e-165
2.42942e-167
8.90363e-169
5.50853e-170
1.06237e-170
1.78909e-171
1.36624e-172
8.3941e-174
4.75769e-175
2.81548e-176
1.59761e-177
5.65702e-179
6.88838e-127
2.29866e-128
7.69207e-130
2.57591e-131
8.62928e-133
2.89415e-134
9.72727e-136
3.27913e-137
1.10952e-138
3.7705e-140
1.28773e-141
4.42263e-143
1.52836e-144
5.31737e-146
1.86338e-147
6.57922e-149
2.34075e-150
8.38908e-152
3.02599e-153
1.09656e-154
3.97949e-156
1.43857e-157
5.13621e-159
1.78825e-160
5.97381e-162
1.92109e-163
6.14932e-165
2.23861e-166
1.11997e-167
7.8418e-169
6.38578e-170
4.34874e-171
2.7137e-172
1.66117e-173
1.02778e-174
6.32755e-176
3.7046e-177
1.96887e-125
6.601e-127
2.21869e-128
7.46377e-130
2.51112e-131
8.45398e-133
2.85071e-134
9.63681e-136
3.26847e-137
1.11296e-138
3.80727e-140
1.30926e-141
4.52875e-143
1.57663e-144
5.52736e-146
1.95222e-147
6.94838e-149
2.49224e-150
9.00492e-152
3.2743e-153
1.19581e-154
4.37205e-156
1.59234e-157
5.73895e-159
2.03341e-160
7.11311e-162
2.52541e-163
9.72849e-165
4.12295e-166
2.01402e-167
1.23019e-168
7.24095e-170
4.0042e-171
2.12621e-172
1.11786e-173
5.96027e-175
3.3691e-176
2.12368e-124
7.15703e-126
2.41729e-127
8.17139e-129
2.76205e-130
9.33878e-132
3.1613e-133
1.07241e-134
3.6486e-136
1.24587e-137
4.27254e-139
1.47248e-140
5.10315e-142
1.77963e-143
6.24861e-145
2.21023e-146
7.87933e-148
2.83185e-149
1.02617e-150
3.74853e-152
1.37978e-153
5.11492e-155
1.9091e-156
7.18165e-158
2.73524e-159
1.06813e-160
4.38737e-162
1.99099e-163
1.04279e-164
5.97216e-166
3.36215e-167
1.8117e-168
9.50683e-170
4.97426e-171
2.64448e-172
1.4546e-173
8.41632e-175
9.54759e-124
3.23345e-125
1.09723e-126
3.72623e-128
1.26519e-129
4.29602e-131
1.46009e-132
4.97164e-134
1.69741e-135
5.8152e-137
2.00046e-138
6.91468e-140
2.40319e-141
8.40375e-143
2.95884e-144
1.04959e-145
3.75358e-147
1.35407e-148
4.92966e-150
1.81192e-151
6.7253e-153
2.52109e-154
9.54685e-156
3.65495e-157
1.41822e-158
5.61154e-160
2.29164e-161
9.87671e-163
4.5837e-164
2.27914e-165
1.18873e-166
6.41282e-168
3.56587e-169
2.04501e-170
1.21436e-171
7.51615e-173
4.89119e-174
1.93038e-123
6.55722e-125
2.2316e-126
7.60052e-128
2.58797e-129
8.81176e-131
3.00278e-132
1.02506e-133
3.50838e-135
1.20483e-136
4.15446e-138
1.4394e-139
5.01457e-141
1.75791e-142
6.20587e-144
2.20796e-145
7.92338e-147
2.87025e-148
1.05047e-149
3.8878e-151
1.45662e-152
5.53302e-154
2.13569e-155
8.40651e-157
3.39313e-158
1.41601e-159
6.17568e-161
2.84857e-162
1.39826e-163
7.2169e-165
3.81913e-166
2.04763e-167
1.1172e-168
6.26267e-170
3.64548e-171
2.22761e-172
1.44483e-173
1.92998e-123
6.55597e-125
2.23125e-126
7.59966e-128
2.58783e-129
8.81196e-131
3.00314e-132
1.02531e-133
3.50981e-135
1.20558e-136
4.15824e-138
1.44126e-139
5.02373e-141
1.76239e-142
6.22781e-144
2.21876e-145
7.97695e-147
2.89701e-148
1.06395e-149
3.95618e-151
1.4915e-152
5.71042e-154
2.22468e-155
8.84116e-157
3.59612e-158
1.50366e-159
6.49835e-161
2.91953e-162
1.36919e-163
6.70576e-165
3.42208e-166
1.81727e-167
1.00466e-168
5.79188e-170
3.49235e-171
2.21178e-172
1.47871e-173
9.54155e-124
3.23163e-125
1.09673e-126
3.7251e-128
1.26506e-129
4.29668e-131
1.46079e-132
4.97609e-134
1.69986e-135
5.82778e-137
2.00672e-138
6.94538e-140
2.41813e-141
8.47644e-143
2.99432e-144
1.06701e-145
3.83973e-147
1.39703e-148
5.14588e-150
1.92181e-151
7.28974e-153
2.81429e-154
1.10872e-155
4.47207e-157
1.85426e-158
7.93958e-160
3.52707e-161
1.63156e-162
7.86562e-164
3.93991e-165
2.04105e-166
1.09149e-167
6.04069e-169
3.47752e-170
2.09459e-171
1.32773e-172
8.89887e-174
2.12175e-124
7.15129e-126
2.41576e-127
8.16816e-129
2.76182e-130
9.34181e-132
3.16397e-133
1.07403e-134
3.65729e-136
1.25027e-137
4.29421e-139
1.48301e-140
5.15409e-142
1.80429e-143
6.36854e-145
2.26896e-146
8.16928e-148
2.97634e-149
1.0989e-150
4.11842e-152
1.56969e-153
6.09737e-155
2.41977e-156
9.83722e-158
4.10874e-159
1.76862e-160
7.87032e-162
3.63043e-163
1.73932e-164
8.66409e-166
4.49099e-167
2.42513e-168
1.36655e-169
8.05298e-171
4.97522e-172
3.23169e-173
2.2114e-174
1.96684e-125
6.59508e-127
2.21721e-128
7.46121e-130
2.51134e-131
8.45946e-133
2.85463e-134
9.65918e-136
3.28002e-137
1.11867e-138
3.8349e-140
1.32251e-141
4.59221e-143
1.60713e-144
5.67491e-146
2.02422e-147
7.30322e-149
2.66905e-150
9.89657e-152
3.72977e-153
1.43164e-154
5.60968e-156
2.24967e-157
9.26045e-159
3.92472e-160
1.71771e-161
7.78369e-163
3.65861e-164
1.78536e-165
9.04664e-167
4.7618e-168
2.60761e-169
1.48972e-170
8.90933e-172
5.59566e-173
3.70208e-174
2.5826e-175
6.88096e-127
2.29659e-128
7.68749e-130
2.57548e-131
8.63275e-133
2.89749e-134
9.74806e-136
3.29022e-137
1.11505e-138
3.79718e-140
1.30043e-141
4.4828e-143
1.55692e-144
5.45379e-146
1.9291e-147
6.89914e-149
2.49826e-150
9.17419e-152
3.42255e-153
1.29968e-154
5.03475e-156
1.99441e-157
8.09953e-159
3.38119e-160
1.45471e-161
6.46605e-163
2.9755e-164
1.41984e-165
7.0338e-167
3.62142e-168
1.94062e-169
1.08463e-170
6.33916e-172
3.88528e-173
2.50271e-174
1.69896e-175
1.21326e-176
6.72452e-129
2.23665e-130
7.46058e-132
2.4903e-133
8.32078e-135
2.78588e-136
9.35538e-138
3.15366e-139
1.06797e-140
3.63621e-142
1.24583e-143
4.29929e-145
1.49595e-146
5.25435e-148
1.86534e-149
6.70268e-151
2.44153e-152
9.03133e-154
3.39901e-155
1.30435e-156
5.11554e-158
2.05561e-159
8.48566e-161
3.60819e-162
1.58413e-163
7.19365e-165
3.38313e-166
1.64903e-167
8.33545e-169
4.37421e-170
2.38857e-171
1.36185e-172
8.13674e-174
5.11143e-175
3.38115e-176
2.36154e-177
1.73035e-178
3.80423e-128
1.26879e-129
4.24203e-131
1.41864e-132
4.74621e-134
1.59003e-135
5.3389e-137
1.79811e-138
6.07848e-140
2.0638e-141
7.04216e-143
2.41645e-144
8.34327e-146
2.90011e-147
1.01532e-148
3.58119e-150
1.2726e-151
4.55433e-153
1.63968e-154
5.92594e-156
2.14152e-157
7.68557e-159
2.70696e-160
9.17186e-162
2.89874e-163
8.25143e-165
2.11084e-166
6.66851e-168
3.16924e-169
2.16989e-170
4.16169e-171
4.74535e-172
3.16812e-173
1.82897e-174
1.00664e-175
5.07596e-177
2.51301e-178
3.67339e-126
1.22937e-127
4.12468e-129
1.38467e-130
4.64844e-132
1.56159e-133
5.25464e-135
1.7726e-136
5.99915e-138
2.03829e-139
6.95685e-141
2.38668e-142
8.23509e-144
2.85941e-145
9.99614e-147
3.51962e-148
1.24836e-149
4.45971e-151
1.60369e-152
5.79687e-154
2.10127e-155
7.60802e-157
2.735e-158
9.68272e-160
3.34783e-161
1.13385e-162
3.87775e-164
1.49421e-165
7.12459e-167
4.25777e-168
3.08773e-169
2.10009e-170
1.29185e-171
7.64298e-173
4.45733e-174
2.54847e-175
1.40574e-176
1.01338e-124
3.40728e-126
1.14806e-127
3.87131e-129
1.30524e-130
4.40157e-132
1.48595e-133
5.02659e-135
1.70516e-136
5.80474e-138
1.98429e-139
6.81564e-141
2.3537e-142
8.17708e-144
2.85948e-145
1.00699e-146
3.57242e-148
1.27689e-149
4.59749e-151
1.66639e-152
6.072e-154
2.21921e-155
8.10868e-157
2.95057e-158
1.06659e-159
3.85087e-161
1.42151e-162
5.69188e-164
2.57177e-165
1.27974e-166
7.21315e-168
4.20956e-169
2.38385e-170
1.31609e-171
7.22902e-173
4.0788e-174
2.43635e-175
1.07737e-123
3.64116e-125
1.23265e-126
4.17628e-128
1.41458e-129
4.79082e-131
1.6236e-132
5.51107e-134
1.87519e-135
6.40074e-137
2.19322e-138
7.54882e-140
2.61156e-141
9.08697e-143
3.18199e-144
1.12199e-145
3.9857e-147
1.42696e-148
5.14999e-150
1.87371e-151
6.87141e-153
2.53974e-154
9.46351e-156
3.5606e-157
1.35913e-158
5.32287e-160
2.18475e-161
9.74161e-163
4.88649e-164
2.67529e-165
1.47272e-166
7.86434e-168
4.10624e-169
2.14431e-170
1.14261e-171
6.31523e-173
3.68538e-174
4.84273e-123
1.64468e-124
5.59333e-126
1.90363e-127
6.47663e-129
2.20276e-130
7.49475e-132
2.55337e-133
8.71792e-135
2.98528e-136
1.02597e-137
3.54126e-139
1.2284e-140
4.28528e-142
1.50441e-143
5.31856e-145
1.89472e-146
6.80589e-148
2.46636e-149
9.02146e-151
3.33227e-152
1.24345e-153
4.69041e-155
1.79086e-156
6.94155e-158
2.74799e-159
1.12297e-160
4.82128e-162
2.21129e-163
1.08183e-164
5.5516e-166
2.94654e-167
1.60918e-168
9.04463e-170
5.25014e-171
3.16664e-172
2.00232e-173
9.83025e-123
3.34852e-124
1.14207e-125
3.89798e-127
1.32992e-128
4.53552e-130
1.54723e-131
5.2845e-133
1.80864e-134
6.20788e-136
2.1384e-137
7.3977e-139
2.57201e-140
8.99363e-142
3.16526e-143
1.12211e-144
4.01018e-146
1.44596e-147
5.26489e-149
1.93768e-150
7.21642e-152
2.72379e-153
1.04426e-154
4.08036e-156
1.63325e-157
6.74614e-159
2.90251e-160
1.31357e-161
6.284e-163
3.15102e-164
1.6238e-165
8.50586e-167
4.54362e-168
2.49524e-169
1.42223e-170
8.4966e-172
5.37461e-173
9.82863e-123
3.34802e-124
1.14193e-125
3.89768e-127
1.32989e-128
4.53573e-130
1.54744e-131
5.28582e-133
1.80936e-134
6.21157e-136
2.14024e-137
7.40669e-139
2.57638e-140
9.01484e-142
3.17558e-143
1.12716e-144
4.035e-146
1.45825e-147
5.32621e-149
1.96848e-150
7.37189e-152
2.80204e-153
1.08313e-154
4.26863e-156
1.7207e-157
7.12444e-159
3.04517e-160
1.35073e-161
6.24092e-163
3.00576e-164
1.50609e-165
7.83968e-167
4.24005e-168
2.38657e-169
1.40212e-170
8.63512e-172
5.60292e-173
4.84018e-123
1.64391e-124
5.59129e-126
1.9032e-127
6.47631e-129
2.20316e-130
7.49832e-132
2.55557e-133
8.72976e-135
2.99131e-136
1.02896e-137
3.5558e-139
1.23545e-140
4.31939e-142
1.52098e-143
5.39942e-145
1.93445e-146
7.00253e-148
2.56451e-149
9.51566e-151
3.58339e-152
1.3723e-153
5.35794e-155
2.13942e-156
8.76953e-158
3.7058e-159
1.62132e-160
7.36872e-162
3.48264e-163
1.70778e-164
8.65732e-166
4.53051e-167
2.45328e-168
1.38105e-169
8.1259e-171
5.02349e-172
3.27772e-173
1.07656e-123
3.63878e-125
1.23204e-126
4.17509e-128
1.41458e-129
4.79255e-131
1.62495e-132
5.519e-134
1.87939e-135
6.42182e-137
2.20354e-138
7.59878e-140
2.63563e-141
9.20301e-143
3.23817e-144
1.14935e-145
4.11992e-147
1.49336e-148
5.48154e-150
2.04078e-151
7.72045e-153
2.97404e-154
1.16933e-155
4.70491e-157
1.94279e-158
8.25801e-160
3.62418e-161
1.64658e-162
7.75984e-164
3.79767e-165
1.93167e-166
1.02226e-167
5.6378e-169
3.24729e-170
1.95834e-171
1.24e-172
8.26203e-174
1.0125e-124
3.40473e-126
1.14743e-127
3.87029e-129
1.30538e-130
4.40424e-132
1.4878e-133
5.03703e-135
1.71056e-136
5.83151e-138
1.99729e-139
6.87815e-141
2.38369e-142
8.32123e-144
2.92915e-145
1.0409e-146
3.73884e-148
1.35937e-149
5.01056e-151
1.87563e-152
7.1446e-154
2.77551e-155
1.10238e-156
4.48901e-158
1.87968e-159
8.11693e-161
3.62399e-162
1.67607e-163
8.03829e-165
3.99927e-166
2.06534e-167
1.10886e-168
6.20578e-170
3.63224e-171
2.23031e-172
1.44081e-173
9.80495e-175
3.66982e-126
1.22835e-127
4.12228e-129
1.38434e-130
4.64946e-132
1.56288e-133
5.26316e-135
1.77735e-136
6.02365e-138
2.05042e-139
7.0157e-141
2.41499e-142
8.37108e-144
2.92492e-145
1.03134e-146
3.67446e-148
1.32459e-149
4.83868e-151
1.79422e-152
6.76639e-154
2.60068e-155
1.02112e-156
4.10597e-158
1.69522e-159
7.20485e-161
3.15982e-162
1.43304e-163
6.73193e-165
3.27996e-166
1.6594e-167
8.7305e-169
4.78676e-170
2.74208e-171
1.6458e-172
1.03739e-173
6.88427e-175
4.80586e-176
3.80036e-128
1.26771e-129
4.23967e-131
1.41841e-132
4.74792e-134
1.59172e-135
5.34952e-137
1.80388e-138
6.10771e-140
2.0781e-141
7.11093e-143
2.44939e-144
8.50333e-146
2.97827e-147
1.05369e-148
3.77073e-150
1.36693e-151
5.02806e-153
1.88017e-154
7.16211e-156
2.78558e-157
1.10889e-158
4.52968e-160
1.90368e-161
8.25087e-163
3.6947e-164
1.71174e-165
8.21254e-167
4.08342e-168
2.10665e-169
1.13017e-170
6.32555e-172
3.70679e-173
2.28169e-174
1.47794e-175
1.00975e-176
7.246e-178
1.44271e-127
4.82422e-129
1.61672e-130
5.41803e-132
1.81577e-133
6.091e-135
2.04703e-136
6.89779e-138
2.33208e-139
7.91598e-141
2.69938e-142
9.25301e-144
3.19019e-145
1.10688e-146
3.86668e-148
1.36043e-149
4.82128e-151
1.72067e-152
6.17934e-154
2.22942e-155
8.05699e-157
2.90225e-158
1.03365e-159
3.5949e-161
1.19904e-162
3.78366e-164
1.14409e-165
3.92602e-167
1.87278e-168
9.96213e-170
5.61946e-171
3.58838e-172
3.49822e-173
2.51364e-174
1.63112e-175
9.9468e-177
5.08463e-178
1.34632e-125
4.51737e-127