/*--------------------------------*- C++ -*----------------------------------*\
| =========                 |                                                 |
| \\      /  F ield         | OpenFOAM: The Open Source CFD Toolbox           |
|  \\    /   O peration     | Version:  2.3.1                                 |
|   \\  /    A nd           | Web:      www.OpenFOAM.org                      |
|    \\/     M anipulation  |                                                 |
\*---------------------------------------------------------------------------*/
FoamFile
{
    version     2.0;
    format      ascii;
    class       volScalarField;
    location    "10";
    object      Sed_0;
}
// * * * * * * * * * * * * * * * * * * * * * * * * * * * * * * * * * * * * * //

dimensions      [0 0 0 0 0 0 0];

internalField   nonuniform List<scalar> 
37530
(
9.10931e-133
2.99899e-134
9.90373e-136
3.27592e-137
1.08629e-138
3.61452e-140
1.20771e-141
4.05464e-143
1.36863e-144
4.64774e-146
1.58886e-147
5.47089e-149
1.89822e-150
6.63857e-152
2.34019e-153
8.31154e-155
2.97133e-156
1.06802e-157
3.86692e-159
1.40313e-160
5.04919e-162
1.76707e-163
5.76176e-165
1.56085e-166
2.70512e-168
4.3435e-170
1.90154e-171
1.39758e-172
3.93986e-173
5.45116e-174
2.34143e-175
1.90791e-176
2.1511e-177
1.0421e-178
6.42428e-180
5.59801e-181
3.3014e-182
1.34759e-130
4.45196e-132
1.47513e-133
4.8935e-135
1.62636e-136
5.42081e-138
1.81349e-139
6.09339e-141
2.05763e-142
6.98738e-144
2.3877e-145
8.21529e-147
2.84758e-148
9.94801e-150
3.50355e-151
1.24407e-152
4.45401e-154
1.60791e-155
5.83878e-157
2.12479e-158
7.70031e-160
2.74866e-161
9.47637e-163
3.04003e-164
8.45911e-166
1.88608e-167
4.57058e-169
2.4549e-170
3.39271e-171
2.53577e-172
8.52878e-174
3.48243e-175
1.91449e-176
1.4352e-177
1.44592e-178
1.30379e-179
1.32433e-180
4.85485e-129
1.61192e-130
5.36691e-132
1.78842e-133
5.96787e-135
1.99633e-136
6.70019e-138
2.25785e-139
7.64427e-141
2.60189e-142
8.90917e-144
3.07087e-145
1.06618e-146
3.73064e-148
1.31632e-149
4.68542e-151
1.68225e-152
6.08905e-154
2.21919e-155
8.12386e-157
2.97375e-158
1.08001e-159
3.84025e-161
1.30628e-162
4.08761e-164
1.12125e-165
2.90959e-167
8.50138e-169
3.34479e-170
1.77903e-171
1.03673e-172
5.56774e-174
2.74904e-175
1.26744e-176
5.502e-178
2.83448e-179
1.70075e-180
5.79217e-128
1.93378e-129
6.47295e-131
2.16795e-132
7.26863e-134
2.44214e-135
8.23001e-137
2.78396e-138
9.45908e-140
3.2303e-141
1.10952e-142
3.83548e-144
1.33536e-145
4.6853e-147
1.65756e-148
5.91522e-150
2.12988e-151
7.73758e-153
2.83483e-154
1.04636e-155
3.88467e-157
1.44742e-158
5.39924e-160
2.01356e-161
7.52903e-163
2.86807e-164
1.16043e-165
5.67206e-167
3.48404e-168
2.25327e-169
1.3003e-170
6.66385e-172
3.16291e-173
1.37589e-174
5.53394e-176
2.20676e-177
9.62768e-179
2.67345e-127
8.97182e-129
3.01828e-130
1.01581e-131
3.42167e-133
1.15474e-134
3.90798e-136
1.32732e-137
4.52739e-139
1.5519e-140
5.34957e-142
1.85577e-143
6.4831e-145
2.28244e-146
8.10323e-148
2.90284e-149
1.04982e-150
3.83445e-152
1.41466e-153
5.27123e-155
1.9826e-156
7.518e-158
2.86926e-159
1.1002e-160
4.23685e-162
1.64683e-163
6.55473e-165
2.77703e-166
1.29445e-167
6.49534e-169
3.42628e-170
1.88691e-171
1.07604e-172
6.276e-174
3.72384e-175
2.25783e-176
1.42824e-177
5.39506e-127
1.81616e-128
6.12861e-130
2.06879e-131
6.98892e-133
2.36533e-134
8.02719e-136
2.73376e-137
9.3494e-139
3.21318e-140
1.11052e-141
3.86265e-143
1.35315e-144
4.77797e-146
1.70185e-147
6.11952e-149
2.22316e-150
8.16598e-152
3.03494e-153
1.14213e-154
4.35598e-156
1.68611e-157
6.64063e-159
2.67271e-160
1.10747e-161
4.77979e-163
2.18458e-164
1.08118e-165
5.85181e-167
3.35815e-168
1.94824e-169
1.12312e-170
6.49552e-172
3.82945e-173
2.33778e-174
1.50358e-175
1.03595e-176
5.39302e-127
1.81553e-128
6.12676e-130
2.06831e-131
6.98789e-133
2.36524e-134
8.02796e-136
2.73448e-137
9.35396e-139
3.21569e-140
1.11183e-141
3.86926e-143
1.35644e-144
4.7943e-146
1.70997e-147
6.16023e-149
2.24373e-150
8.27099e-152
3.08909e-153
1.17034e-154
4.50401e-156
1.7635e-157
7.03776e-159
2.86955e-160
1.19941e-161
5.16368e-163
2.3043e-164
1.07374e-165
5.25317e-167
2.6934e-168
1.44429e-169
8.11228e-171
4.78206e-172
2.96388e-173
1.9368e-174
1.34073e-175
9.85824e-177
2.67083e-127
8.96389e-129
3.01609e-130
1.01531e-131
3.42098e-133
1.15494e-134
3.91048e-136
1.32894e-137
4.53633e-139
1.5565e-140
5.37254e-142
1.86705e-143
6.5383e-145
2.30948e-146
8.23653e-148
2.96914e-149
1.08315e-150
4.00376e-152
1.50173e-153
5.72469e-155
2.22214e-156
8.80363e-158
3.57083e-159
1.48887e-160
6.41405e-162
2.8721e-163
1.34518e-164
6.62251e-166
3.42617e-167
1.85226e-168
1.03646e-169
5.97106e-171
3.55163e-172
2.19618e-173
1.42322e-174
9.75376e-176
7.11684e-177
5.78383e-128
1.93126e-129
6.46608e-131
2.1664e-132
7.2668e-134
2.44297e-135
8.23886e-137
2.78956e-138
9.48951e-140
3.24584e-141
1.11722e-142
3.87312e-144
1.35362e-145
4.77409e-147
1.70107e-148
6.1308e-150
2.23793e-151
8.2858e-153
3.11659e-154
1.19308e-155
4.65811e-157
1.8592e-158
7.60646e-160
3.19896e-161
1.3871e-162
6.22079e-164
2.89431e-165
1.4006e-166
7.0608e-168
3.71167e-169
2.03748e-170
1.17124e-171
7.06375e-173
4.47928e-174
2.9923e-175
2.11317e-176
1.57481e-177
4.84763e-129
1.60981e-130
5.36158e-132
1.78747e-133
5.9684e-135
1.99812e-136
6.71319e-138
2.26524e-139
7.68251e-141
2.62086e-142
9.00148e-144
3.11541e-145
1.08764e-146
3.83441e-148
1.36673e-149
4.93187e-151
1.80435e-152
6.70358e-154
2.53366e-155
9.76155e-157
3.84245e-158
1.54926e-159
6.41696e-161
2.73937e-162
1.20949e-163
5.54131e-165
2.64153e-166
1.31224e-167
6.7943e-169
3.66327e-170
2.05567e-171
1.20196e-172
7.34439e-174
4.70842e-175
3.17789e-176
2.26831e-177
1.7091e-178
1.34601e-130
4.44772e-132
1.47432e-133
4.89373e-135
1.62775e-136
5.43131e-138
1.81955e-139
6.12484e-141
2.07313e-142
7.06202e-144
2.42328e-145
8.38468e-147
2.92851e-148
1.03371e-149
3.6925e-151
1.33673e-152
4.9121e-154
1.83556e-155
6.98893e-157
2.71741e-158
1.0816e-159
4.41863e-161
1.85786e-162
8.06157e-164
3.61908e-165
1.68456e-166
8.14299e-168
4.09211e-169
2.13947e-170
1.16497e-171
6.61895e-173
3.93431e-174
2.45326e-175
1.60931e-176
1.11172e-177
8.12161e-179
6.21198e-180
9.1035e-133
2.99798e-134
9.90578e-136
3.27916e-137
1.08852e-138
3.62705e-140
1.21414e-141
4.08601e-143
1.38356e-144
4.71806e-146
1.62193e-147
5.62696e-149
1.97243e-150
6.99491e-152
2.51331e-153
9.16429e-155
3.39719e-156
1.28285e-157
4.94562e-159
1.95124e-160
7.89923e-162
3.29029e-163
1.41409e-164
6.28771e-166
2.89854e-167
1.38679e-168
6.88769e-170
3.54949e-171
1.8973e-172
1.0529e-173
6.08562e-175
3.68154e-176
2.34219e-177
1.573e-178
1.11556e-179
8.38803e-181
6.57375e-182
4.10762e-131
1.35669e-132
4.49461e-134
1.49086e-135
4.9544e-137
1.65116e-138
5.5231e-140
1.85548e-141
6.26438e-143
2.12678e-144
7.26535e-146
2.49878e-147
8.65656e-149
3.02204e-150
1.06341e-151
3.77137e-153
1.34829e-154
4.8623e-156
1.76378e-157
6.40776e-159
2.31359e-160
8.18082e-162
2.74817e-163
8.17531e-165
1.96249e-166
3.36848e-168
9.94267e-170
5.47948e-171
6.00543e-172
1.65806e-172
1.22509e-173
6.82791e-175
5.14205e-176
2.69103e-177
1.81713e-178
1.34872e-179
6.90184e-181
5.11618e-129
1.69594e-130
5.63919e-132
1.87698e-133
6.25541e-135
2.08951e-136
7.00193e-138
2.35553e-139
7.96048e-141
2.70421e-142
9.23991e-144
3.17748e-145
1.10035e-146
3.83929e-148
1.35018e-149
4.78858e-151
1.71264e-152
6.17198e-154
2.23763e-155
8.1375e-157
2.95329e-158
1.06014e-159
3.70664e-161
1.22831e-162
3.68361e-164
9.98429e-166
2.61872e-167
9.40218e-169
8.06147e-170
6.5616e-171
3.59335e-172
1.62368e-173
9.03334e-175
5.83732e-176
4.25009e-177
3.18439e-178
2.49948e-179
1.67439e-127
5.5776e-129
1.86356e-130
6.23159e-132
2.08554e-133
6.99233e-135
2.35087e-136
7.93191e-138
2.68761e-139
9.1511e-141
3.13312e-142
1.07933e-143
3.74358e-145
1.3081e-146
4.60741e-148
1.6363e-149
5.85993e-151
2.11552e-152
7.69204e-154
2.81155e-155
1.02945e-156
3.75314e-158
1.34899e-159
4.70437e-161
1.55422e-162
4.79993e-164
1.47814e-165
4.71447e-167
1.78797e-168
9.32773e-170
5.90483e-171
3.02954e-172
1.40755e-173
6.52158e-175
3.05034e-176
1.49254e-177
8.29454e-179
1.9197e-126
6.42929e-128
2.15938e-129
7.25739e-131
2.44037e-132
8.21776e-134
2.77397e-135
9.39421e-137
3.19402e-138
1.09099e-139
3.74621e-141
1.29405e-142
4.49967e-144
1.57597e-145
5.56292e-147
1.97994e-148
7.10786e-150
2.57398e-151
9.40033e-153
3.45979e-154
1.28175e-155
4.7721e-157
1.78252e-158
6.67645e-160
2.51657e-161
9.69227e-163
3.95185e-164
1.87099e-165
1.06938e-166
6.59579e-168
3.80761e-169
2.01712e-170
1.00832e-171
4.80774e-173
2.24318e-174
1.04639e-175
5.14702e-177
8.75921e-126
2.94846e-127
9.95191e-129
3.36082e-130
1.13533e-131
3.83992e-133
1.30159e-134
4.42534e-136
1.51028e-137
5.17728e-139
1.78391e-140
6.18255e-142
2.15671e-143
7.57789e-145
2.68365e-146
9.5852e-148
3.45476e-149
1.25711e-150
4.61941e-152
1.7143e-153
6.42334e-155
2.4283e-156
9.25305e-158
3.5513e-159
1.37394e-160
5.38758e-162
2.17296e-163
9.31094e-165
4.36333e-166
2.20039e-167
1.16281e-168
6.37834e-170
3.61752e-171
2.11344e-172
1.27351e-173
7.95994e-175
5.23548e-176
1.7665e-125
5.96452e-127
2.0193e-128
6.83957e-130
2.3172e-131
7.85929e-133
2.67128e-134
9.10632e-136
3.11586e-137
1.07085e-138
3.69912e-140
1.2853e-141
4.4955e-143
1.58397e-144
5.6267e-146
2.0167e-147
7.29881e-149
2.6695e-150
9.87436e-152
3.69692e-153
1.40228e-154
5.39657e-156
2.11218e-157
8.44156e-159
3.46813e-160
1.48015e-161
6.65623e-163
3.21252e-164
1.67889e-165
9.28413e-167
5.22436e-168
2.94623e-169
1.67742e-170
9.77442e-172
5.91114e-173
3.76497e-174
2.56175e-175
1.76593e-125
5.96275e-127
2.01878e-128
6.83823e-130
2.31692e-131
7.8591e-133
2.67153e-134
9.10857e-136
3.11725e-137
1.07161e-138
3.70305e-140
1.28728e-141
4.50532e-143
1.58883e-144
5.65081e-146
2.02873e-147
7.35931e-149
2.70019e-150
1.00316e-151
3.77825e-153
1.44462e-154
5.61627e-156
2.22432e-157
8.9963e-159
3.7283e-160
1.59064e-161
7.02902e-163
3.23958e-164
1.56511e-165
7.92128e-167
4.18922e-168
2.3156e-169
1.33962e-170
8.12707e-172
5.18547e-173
3.49523e-174
2.49926e-175
8.7515e-126
2.94612e-127
9.94543e-129
3.3593e-130
1.13511e-131
3.84043e-133
1.3023e-134
4.43006e-136
1.5129e-137
5.19085e-139
1.79069e-140
6.21598e-142
2.17308e-143
7.65798e-145
2.72306e-146
9.78065e-148
3.55258e-149
1.30656e-150
4.87221e-152
1.84508e-153
7.10867e-155
2.79269e-156
1.12198e-157
4.62711e-159
1.96806e-160
8.68047e-162
3.99296e-163
1.92416e-164
9.71607e-166
5.11616e-167
2.78902e-168
1.56801e-169
9.1162e-171
5.51483e-172
3.49691e-173
2.34282e-174
1.66778e-175
1.91724e-126
6.42186e-128
2.15735e-129
7.2528e-131
2.43982e-132
8.22013e-134
2.77658e-135
9.41087e-137
3.20312e-138
1.09564e-139
3.76933e-141
1.30533e-142
4.5544e-144
1.6026e-145
5.69332e-147
2.04439e-148
7.42965e-150
2.73647e-151
1.02307e-152
3.88933e-154
1.50651e-155
5.95929e-157
2.41361e-158
1.00371e-159
4.29857e-161
1.90198e-162
8.72198e-164
4.15643e-165
2.06209e-166
1.06614e-167
5.75092e-169
3.24218e-170
1.91441e-171
1.18667e-172
7.73926e-174
5.32754e-175
3.87134e-176
1.67208e-127
5.5708e-129
1.86182e-130
6.22834e-132
2.0856e-133
6.99752e-135
2.35477e-136
7.95444e-138
2.69937e-139
9.20969e-141
3.16168e-142
1.09312e-143
3.8099e-145
1.34003e-146
4.76188e-148
1.71183e-149
6.23402e-151
2.30343e-152
8.65027e-154
3.30808e-155
1.29111e-156
5.15536e-158
2.11194e-159
8.90419e-161
3.87657e-162
1.74837e-163
8.19065e-165
3.99249e-166
2.02584e-167
1.06958e-168
5.87512e-170
3.3621e-171
2.01033e-172
1.26079e-173
8.32128e-175
5.80265e-176
4.27214e-177
5.10976e-129
1.69416e-130
5.63538e-132
1.87671e-133
6.259e-135
2.0927e-136
7.02127e-138
2.3658e-139
8.01172e-141
2.72905e-142
9.35876e-144
3.23414e-145
1.12741e-146
3.96905e-148
1.41292e-149
5.09313e-151
1.86189e-152
6.91458e-154
2.61363e-155
1.00765e-156
3.97171e-158
1.60458e-159
6.66243e-161
2.8509e-162
1.26049e-163
5.77198e-165
2.74254e-166
1.35395e-167
6.95146e-169
3.71546e-170
2.07066e-171
1.20606e-172
7.361e-174
4.72125e-175
3.18714e-176
2.27322e-177
1.70143e-178
4.10359e-131
1.35573e-132
4.4936e-134
1.49155e-135
4.96123e-137
1.65547e-138
5.54635e-140
1.86715e-141
6.32081e-143
2.15361e-144
7.39215e-146
2.55877e-147
8.94193e-149
3.1587e-150
1.12944e-151
4.09408e-153
1.50704e-154
5.64393e-156
2.15492e-157
8.40755e-159
3.36034e-160
1.37954e-161
5.83354e-163
2.54794e-164
1.15201e-165
5.39971e-167
2.62584e-168
1.325e-169
6.93839e-171
3.7742e-172
2.13844e-173
1.26726e-174
7.88683e-176
5.17286e-177
3.57811e-178
2.62065e-179
2.00472e-180
7.18782e-130
2.38246e-131
7.91968e-133
2.63492e-134
8.77805e-136
2.93115e-137
9.81896e-139
3.30204e-140
1.1155e-141
3.78789e-143
1.2937e-144
4.44665e-146
1.53893e-147
5.36752e-149
1.8878e-150
6.69528e-152
2.39387e-153
8.62204e-155
3.12282e-156
1.1336e-157
4.0988e-159
1.45915e-160
5.00057e-162
1.57545e-163
4.29412e-165
8.52885e-167
2.03784e-168
8.99104e-170
6.84714e-171
1.82423e-171
2.06762e-172
1.31318e-173
8.17573e-175
4.59599e-176
2.84067e-177
1.70269e-178
6.81459e-180
8.03167e-128
2.67155e-129
8.91309e-131
2.97626e-132
9.94608e-134
3.32946e-135
1.11751e-136
3.76381e-138
1.27291e-139
4.3255e-141
1.4778e-142
5.07923e-144
1.75732e-145
6.12489e-147
2.15128e-148
7.61643e-150
2.71798e-151
9.77189e-153
3.53538e-154
1.28415e-155
4.6639e-157
1.68191e-158
5.9532e-160
2.02991e-161
6.4843e-163
1.95042e-164
5.72802e-166
1.9753e-167
1.14859e-168
8.84756e-170
6.49552e-171
3.92826e-172
2.2592e-173
1.32628e-174
8.31098e-176
5.41905e-177
3.4177e-178
2.42645e-126
8.10937e-128
2.718e-129
9.11779e-131
3.05994e-132
1.02814e-133
3.46213e-135
1.16938e-136
3.96462e-138
1.35012e-139
4.62103e-141
1.59071e-142
5.51075e-144
1.92242e-145
6.75653e-147
2.39337e-148
8.54657e-150
3.07621e-151
1.11536e-152
4.06798e-154
1.48853e-155
5.44001e-157
1.97161e-158
7.01312e-160
2.41701e-161
8.08588e-163
2.72039e-164
9.7164e-166
3.81946e-167
1.85983e-168
1.14165e-169
6.35152e-171
3.23703e-172
1.57122e-173
7.74174e-175
3.9881e-176
2.22385e-177
2.68328e-125
9.0149e-127
3.03676e-128
1.02377e-129
3.45194e-131
1.16487e-132
3.93792e-134
1.33483e-135
4.54028e-137
1.55073e-138
5.32201e-140
1.83645e-141
6.3757e-143
2.22842e-144
7.84595e-146
2.78418e-147
9.96149e-149
3.59435e-150
1.30785e-151
4.79688e-153
1.77208e-154
6.58698e-156
2.46132e-157
9.24834e-159
3.50899e-160
1.36347e-161
5.59262e-163
2.59004e-164
1.41158e-165
8.35129e-167
4.76022e-168
2.55928e-169
1.32887e-170
6.81583e-172
3.53246e-173
1.87635e-174
1.04225e-175
1.21232e-124
4.09325e-126
1.3855e-127
4.69296e-129
1.58958e-130
5.38725e-132
1.82862e-133
6.22221e-135
2.1241e-136
7.27977e-138
2.5065e-139
8.67602e-141
3.02116e-142
1.05907e-143
3.74001e-145
1.33137e-146
4.78036e-148
1.73215e-149
6.33644e-151
2.34067e-152
8.73127e-154
3.28813e-155
1.24973e-156
4.79454e-158
1.86008e-159
7.34034e-161
2.98781e-162
1.28863e-163
6.03189e-165
3.03313e-166
1.59852e-167
8.72452e-169
4.91657e-170
2.86074e-171
1.72603e-172
1.0872e-173
7.21901e-175
2.44567e-124
8.28253e-126
2.81184e-127
9.55221e-129
3.24476e-130
1.10274e-131
3.7531e-133
1.28037e-134
4.38188e-136
1.50548e-137
5.19621e-139
1.80303e-140
6.29426e-142
2.21228e-143
7.83471e-145
2.79794e-146
1.00841e-147
3.67082e-149
1.35075e-150
5.02865e-152
1.89596e-153
7.25019e-155
2.8185e-156
1.11806e-157
4.55325e-159
1.92142e-160
8.50539e-162
4.0085e-163
2.02644e-164
1.08052e-165
5.88851e-167
3.23728e-168
1.80602e-169
1.03398e-170
6.14858e-172
3.84474e-173
2.5596e-174
2.44502e-124
8.28053e-126
2.81126e-127
9.55074e-129
3.24448e-130
1.10273e-131
3.75349e-133
1.28068e-134
4.38372e-136
1.50647e-137
5.20127e-139
1.80556e-140
6.30675e-142
2.21842e-143
7.86503e-145
2.81298e-146
1.01592e-147
3.70865e-149
1.36998e-150
5.12716e-152
1.94675e-153
7.51126e-155
2.95071e-156
1.18314e-157
4.85844e-159
2.05256e-160
8.97291e-162
4.08491e-163
1.9454e-164
9.69249e-166
5.03979e-167
2.73266e-168
1.54628e-169
9.14741e-171
5.67447e-172
3.70724e-173
2.56291e-174
1.2114e-124
4.09048e-126
1.38473e-127
4.69118e-129
1.58934e-130
5.38797e-132
1.82952e-133
6.22817e-135
2.12741e-136
7.29691e-138
2.51508e-139
8.7182e-141
3.04176e-142
1.06914e-143
3.78935e-145
1.35572e-146
4.90156e-148
1.79303e-149
6.64535e-151
2.49912e-152
9.55369e-154
3.72053e-155
1.48008e-156
6.03591e-158
2.53426e-159
1.10097e-160
4.97443e-162
2.34693e-163
1.15694e-164
5.93607e-166
3.1515e-167
1.72686e-168
9.79262e-170
5.77936e-171
3.57271e-172
2.32872e-173
1.60883e-174
2.68036e-125
9.00611e-127
3.03438e-128
1.02324e-129
3.45138e-131
1.16521e-132
3.94136e-134
1.33699e-135
4.552e-137
1.55671e-138
5.35151e-140
1.85082e-141
6.44542e-143
2.26229e-144
8.01133e-146
2.86557e-147
1.03658e-148
3.79723e-150
1.41079e-151
5.32505e-153
2.04597e-154
8.01952e-156
3.21486e-157
1.32171e-158
5.58943e-160
2.43913e-161
1.1018e-162
5.16607e-164
2.51904e-165
1.27873e-166
6.76386e-168
3.73307e-169
2.15371e-170
1.30173e-171
8.26252e-173
5.52395e-174
3.89558e-175
2.42351e-126
8.10077e-128
2.71581e-129
9.11376e-131
3.06007e-132
1.02884e-133
3.4673e-135
1.17235e-136
3.98013e-138
1.35783e-139
4.65856e-141
1.60875e-142
5.59704e-144
1.96384e-145
6.95693e-147
2.49131e-148
9.03076e-150
3.3186e-151
1.23835e-152
4.70113e-154
1.81947e-155
7.19621e-157
2.9164e-158
1.21473e-159
5.21668e-161
2.31702e-162
1.06719e-163
5.10627e-165
2.53992e-166
1.31326e-167
7.05955e-169
3.95133e-170
2.30938e-171
1.41447e-172
9.10895e-174
6.18847e-175
4.4376e-176
8.02212e-128
2.66889e-129
8.90723e-131
2.97573e-132
9.95069e-134
3.33382e-135
1.12021e-136
3.77824e-138
1.28013e-139
4.36053e-141
1.49455e-142
5.15895e-144
1.79526e-145
6.30496e-147
2.23747e-148
8.03405e-150
2.92317e-151
1.07951e-152
4.05364e-154
1.55093e-155
6.05966e-157
2.42375e-158
9.9508e-160
4.2047e-161
1.83343e-162
8.26983e-164
3.86647e-165
1.8766e-166
9.46533e-168
4.96651e-169
2.71495e-170
1.54954e-171
9.25767e-173
5.80632e-174
3.83058e-175
2.66661e-176
1.95188e-177
7.18005e-130
2.3805e-131
7.91664e-133
2.63553e-134
8.78726e-136
2.93743e-137
9.85402e-139
3.31993e-140
1.12422e-141
3.8295e-143
1.3134e-144
4.53979e-146
1.58317e-147
5.57683e-149
1.98697e-150
7.17098e-152
2.62573e-153
9.77202e-155
3.70383e-156
1.43288e-157
5.67171e-159
2.30297e-160
9.61841e-162
4.14338e-163
1.84527e-164
8.51006e-166
4.0686e-167
2.01755e-168
1.03811e-169
5.54826e-171
3.08773e-172
1.79593e-173
1.09586e-174
7.03867e-176
4.76445e-177
3.4099e-178
2.5561e-179
6.64552e-129
2.2097e-130
7.3671e-132
2.45752e-133
8.20454e-135
2.74411e-136
9.20305e-138
3.09721e-139
1.04667e-140
3.55412e-142
1.21342e-143
4.16793e-145
1.44118e-146
5.01915e-148
1.76133e-149
6.22941e-151
2.22032e-152
7.97068e-154
2.87799e-155
1.04236e-156
3.76797e-158
1.34723e-159
4.6863e-161
1.53798e-162
4.55245e-164
1.12056e-165
2.39221e-167
8.75057e-169
5.40396e-170
1.03706e-170
1.75432e-171
1.34121e-172
8.2417e-174
4.67149e-175
2.76353e-176
1.56785e-177
5.55164e-179
6.80038e-127
2.26904e-128
7.59212e-130
2.5421e-131
8.51485e-133
2.85538e-134
9.59564e-136
3.23432e-137
1.09421e-138
3.71795e-140
1.2696e-141
4.35975e-143
1.50641e-144
5.24025e-146
1.83609e-147
6.48193e-149
2.30581e-150
8.2627e-152
2.98001e-153
1.07977e-154
3.9181e-156
1.41625e-157
5.05627e-159
1.7604e-160
5.88102e-162
1.89118e-163
6.05183e-165
2.2015e-166
1.0997e-167
7.69528e-169
6.2679e-170
4.26944e-171
2.66428e-172
1.63069e-173
1.00871e-174
6.20878e-176
3.63434e-177
1.94389e-125
6.51647e-127
2.19005e-128
7.36652e-130
2.47806e-131
8.3415e-133
2.81239e-134
9.506e-136
3.22366e-137
1.09755e-138
3.75404e-140
1.29077e-141
4.46415e-143
1.55392e-144
5.44694e-146
1.92354e-147
6.84531e-149
2.45492e-150
8.86887e-152
3.22441e-153
1.17744e-154
4.30446e-156
1.5676e-157
5.64945e-159
2.00162e-160
7.00128e-162
2.4851e-163
9.5693e-165
4.0535e-166
1.97813e-167
1.20813e-168
7.1117e-170
3.93294e-171
2.08843e-172
1.09787e-173
5.85244e-175
3.30706e-176
2.09685e-124
7.06574e-126
2.38622e-127
8.06538e-129
2.72584e-130
9.21508e-132
3.11899e-133
1.05791e-134
3.59879e-136
1.22869e-137
4.21305e-139
1.45177e-140
5.03068e-142
1.7541e-143
6.15809e-145
2.1779e-146
7.76293e-148
2.78961e-149
1.01072e-150
3.69158e-152
1.35863e-153
5.03584e-155
1.87933e-156
7.06864e-158
2.69174e-159
1.05089e-160
4.31512e-162
1.9572e-163
1.02457e-164
5.86671e-166
3.30305e-167
1.77999e-168
9.34014e-170
4.88651e-171
2.59738e-172
1.42841e-173
8.26303e-175
9.42707e-124
3.19224e-125
1.08314e-126
3.67794e-128
1.24862e-129
4.23918e-131
1.44057e-132
4.90452e-134
1.67427e-135
5.73513e-137
1.97264e-138
6.81756e-140
2.3691e-141
8.28335e-143
2.91603e-144
1.03426e-145
3.69819e-147
1.33389e-148
4.85549e-150
1.7844e-151
6.6222e-153
2.4821e-154
9.39789e-156
3.59743e-157
1.3957e-158
5.52151e-160
2.25438e-161
9.71324e-163
4.50627e-164
2.24e-165
1.16807e-166
6.30023e-168
3.50272e-169
2.00851e-170
1.1925e-171
7.37966e-173
4.80151e-174
1.90599e-123
6.47356e-125
2.20291e-126
7.50193e-128
2.55405e-129
8.69508e-131
2.96261e-132
1.01121e-133
3.4605e-135
1.18823e-136
4.09664e-138
1.41916e-139
4.94338e-141
1.73271e-142
6.116e-144
2.17566e-145
7.80634e-147
2.82743e-148
1.03465e-149
3.82865e-151
1.43424e-152
5.44714e-154
2.10219e-155
8.27319e-157
3.33865e-158
1.39295e-159
6.07354e-161
2.80065e-162
1.37435e-163
7.09214e-165
3.75272e-166
2.01183e-167
1.09753e-168
6.1515e-170
3.58016e-171
2.18729e-172
1.41841e-173
1.90559e-123
6.47233e-125
2.20257e-126
7.50108e-128
2.55392e-129
8.69527e-131
2.96296e-132
1.01145e-133
3.46191e-135
1.18896e-136
4.10037e-138
1.42101e-139
4.95241e-141
1.73712e-142
6.13761e-144
2.1863e-145
7.85908e-147
2.85376e-148
1.04791e-149
3.89593e-151
1.46855e-152
5.62167e-154
2.18975e-155
8.70088e-157
3.53845e-158
1.47927e-159
6.3917e-161
2.87101e-162
1.34613e-163
6.59146e-165
3.36309e-166
1.78561e-167
9.86974e-169
5.68896e-170
3.4297e-171
2.17173e-172
1.45167e-173
9.4211e-124
3.19044e-125
1.08264e-126
3.67683e-128
1.24849e-129
4.23983e-131
1.44126e-132
4.9089e-134
1.67668e-135
5.74752e-137
1.97881e-138
6.8478e-140
2.38382e-141
8.35494e-143
2.95096e-144
1.05141e-145
3.78298e-147
1.37617e-148
5.06826e-150
1.89252e-151
7.17747e-153
2.77049e-154
1.09127e-155
4.40087e-157
1.82438e-158
7.81003e-160
3.46877e-161
1.60424e-162
7.73231e-164
3.87243e-165
2.00579e-166
1.07247e-167
5.93451e-169
3.41583e-170
2.05708e-171
1.30372e-172
8.73638e-174
2.09495e-124
7.06007e-126
2.38471e-127
8.06219e-129
2.72562e-130
9.21807e-132
3.12162e-133
1.05951e-134
3.60735e-136
1.23303e-137
4.2344e-139
1.46214e-140
5.08084e-142
1.77839e-143
6.27617e-145
2.23571e-146
8.04833e-148
2.93181e-149
1.08229e-150
4.0555e-152
1.54545e-153
6.0022e-155
2.38158e-156
9.68025e-158
4.04244e-159
1.73976e-160
7.74037e-162
3.56979e-163
1.70994e-164
8.51609e-166
4.41345e-167
2.38282e-168
1.34247e-169
7.90967e-171
4.88583e-172
3.17307e-173
2.17091e-174
1.94188e-125
6.51063e-127
2.18859e-128
7.36398e-130
2.47827e-131
8.34691e-133
2.81626e-134
9.52804e-136
3.23505e-137
1.10317e-138
3.78125e-140
1.30382e-141
4.52665e-143
1.58395e-144
5.59221e-146
1.99441e-147
7.19456e-149
2.62892e-150
9.74619e-152
3.67249e-153
1.40942e-154
5.52163e-156
2.21396e-157
9.11176e-159
3.86096e-160
1.68947e-161
7.65422e-163
3.59705e-164
1.75499e-165
8.89115e-167
4.67914e-168
2.56191e-169
1.46336e-170
8.75016e-172
5.49473e-173
3.63467e-174
2.53514e-175
6.79305e-127
2.26699e-128
7.58759e-130
2.54168e-131
8.51827e-133
2.85867e-134
9.61613e-136
3.24525e-137
1.09965e-138
3.74422e-140
1.28211e-141
4.419e-143
1.53454e-144
5.37457e-146
1.90079e-147
6.79683e-149
2.46082e-150
9.03524e-152
3.37016e-153
1.27957e-154
4.95598e-156
1.96285e-157
7.96995e-159
3.32648e-160
1.4309e-161
6.359e-163
2.92568e-164
1.3958e-165
6.91344e-167
3.55881e-168
1.90673e-169
1.0655e-170
6.22625e-172
3.8154e-173
2.45727e-174
1.66782e-175
1.19083e-176
6.63794e-129
2.20762e-130
7.36288e-132
2.45735e-133
8.20954e-135
2.74825e-136
9.22777e-138
3.11021e-139
1.05311e-140
3.5851e-142
1.22814e-143
4.23762e-145
1.47427e-146
5.17741e-148
1.83774e-149
6.60246e-151
2.40464e-152
8.89339e-154
3.34653e-155
1.28399e-156
5.0348e-158
2.0228e-159
8.34866e-161
3.54926e-162
1.55796e-163
7.07346e-165
3.32599e-166
1.62088e-167
8.19174e-169
4.29806e-170
2.34659e-171
1.33767e-172
7.99089e-174
5.0189e-175
3.31936e-176
2.31797e-177
1.69816e-178
3.75544e-128
1.25238e-129
4.1867e-131
1.39995e-132
4.68302e-134
1.56865e-135
5.26638e-137
1.77345e-138
5.99428e-140
2.03493e-141
6.94266e-143
2.38196e-144
8.22303e-146
2.8579e-147
1.0004e-148
3.52805e-150
1.25354e-151
4.4855e-153
1.61469e-154
5.83492e-156
2.10841e-157
7.56622e-159
2.66487e-160
9.02981e-162
2.85434e-163
8.12731e-165
2.07881e-166
6.55881e-168
3.11197e-169
2.12957e-170
4.06922e-171
4.65442e-172
3.11025e-173
1.79582e-174
9.88373e-176
4.983e-177
2.46652e-178
3.62665e-126
1.21359e-127
4.07131e-129
1.36658e-130
4.58706e-132
1.54076e-133
5.18383e-135
1.74848e-136
5.9167e-138
2.01e-139
6.85933e-141
2.35289e-142
8.11734e-144
2.81812e-145
9.85037e-147
3.4678e-148
1.22981e-149
4.39281e-151
1.57942e-152
5.70841e-154
2.06896e-155
7.49029e-157
2.69247e-158
9.53167e-160
3.2955e-161
1.11603e-162
3.81577e-164
1.46931e-165
6.99987e-167
4.18118e-168
3.03064e-169
2.06164e-170
1.26834e-171
7.50368e-173
4.37558e-174
2.50137e-175
1.37954e-176
1.00058e-124
3.36382e-126
1.1333e-127
3.82109e-129
1.28813e-130
4.34328e-132
1.46607e-133
4.95866e-135
1.68189e-136
5.72473e-138
1.95667e-139
6.71982e-141
2.32028e-142
8.05982e-144
2.81807e-145
9.92265e-147
3.51967e-148
1.25786e-149
4.52832e-151
1.6411e-152
5.97909e-154
2.185e-155
7.9829e-157
2.90456e-158
1.04988e-159
3.79004e-161
1.39872e-162
5.59797e-164
2.52822e-165
1.25758e-166
7.08494e-168
4.13434e-169
2.3413e-170
1.29259e-171
7.09936e-173
4.00499e-174
2.39172e-175
1.06382e-123
3.59491e-125
1.21688e-126
4.12236e-128
1.39613e-129
4.72767e-131
1.60198e-132
5.43693e-134
1.84972e-135
6.31292e-137
2.16283e-138
7.44318e-140
2.57465e-141
8.95726e-143
3.13612e-144
1.10566e-145
3.92711e-147
1.40578e-148
5.07281e-150
1.84537e-151
6.76654e-153
2.50063e-154
9.31647e-156
3.50475e-157
1.33757e-158
5.23726e-160
2.14895e-161
9.57785e-163
4.8021e-164
2.6285e-165
1.44701e-166
7.72724e-168
4.03448e-169
2.10661e-170
1.12233e-171
6.20195e-173
3.61848e-174
4.78191e-123
1.62381e-124
5.52182e-126
1.87909e-127
6.39227e-129
2.17377e-130
7.39508e-132
2.51907e-133
8.59965e-135
2.94438e-136
1.01178e-137
3.49178e-139
1.21107e-140
4.2242e-142
1.48276e-143
5.24124e-145
1.8669e-146
6.70499e-148
2.42944e-149
8.88511e-151
3.28143e-152
1.2243e-153
4.61753e-155
1.76278e-156
6.83166e-158
2.70402e-159
1.10476e-160
4.74179e-162
2.17414e-163
1.06336e-164
5.45565e-166
2.8951e-167
1.58085e-168
8.88412e-170
5.15621e-171
3.10948e-172
1.96583e-173
9.70669e-123
3.30599e-124
1.12745e-125
3.84768e-127
1.31258e-128
4.47579e-130
1.52664e-131
5.21347e-133
1.78409e-134
6.12277e-136
2.1088e-137
7.29427e-139
2.53569e-140
8.86537e-142
3.11967e-143
1.10579e-144
3.95127e-146
1.4245e-147
5.18599e-149
1.90835e-150
7.10611e-152
2.68173e-153
1.02797e-154
4.01597e-156
1.60717e-157
6.63693e-159
2.85481e-160
1.29164e-161
6.17745e-163
3.097e-164
1.59577e-165
8.3581e-167
4.46412e-168
2.45121e-169
1.3969e-170
8.34371e-172
5.27689e-173
9.70509e-123
3.30551e-124
1.12732e-125
3.84739e-127
1.31255e-128
4.47599e-130
1.52685e-131
5.21477e-133
1.7848e-134
6.12641e-136
2.11061e-137
7.30313e-139
2.54e-140
8.88626e-142
3.12984e-143
1.11076e-144
3.97569e-146
1.4366e-147
5.24634e-149
1.93866e-150
7.25908e-152
2.75872e-153
1.06622e-154
4.20125e-156
1.69324e-157
7.00947e-159
2.99545e-160
1.3284e-161
6.13641e-163
2.95481e-164
1.48027e-165
7.70386e-167
4.16586e-168
2.34441e-169
1.37711e-170
8.47965e-172
5.50108e-173
4.77939e-123
1.62306e-124
5.51981e-126
1.87866e-127
6.39196e-129
2.17416e-130
7.3986e-132
2.52123e-133
8.61131e-135
2.95032e-136
1.01472e-137
3.5061e-139
1.21801e-140
4.2578e-142
1.49907e-143
5.32086e-145
1.90601e-146
6.89854e-148
2.52603e-149
9.3714e-151
3.52849e-152
1.35105e-153
5.27407e-155
2.10554e-156
8.62901e-158
3.64568e-159
1.59468e-160
7.2461e-162
3.42399e-163
1.67872e-164
8.50866e-166
4.45203e-167
2.4104e-168
1.35669e-169
7.98119e-171
4.93315e-172
3.2182e-173
1.06303e-123
3.59257e-125
1.21627e-126
4.12118e-128
1.39613e-129
4.72938e-131
1.60331e-132
5.44475e-134
1.85385e-135
6.33369e-137
2.173e-138
7.4924e-140
2.59836e-141
9.07154e-143
3.19144e-144
1.13259e-145
4.05923e-147
1.47114e-148
5.39909e-150
2.00976e-151
7.60185e-153
2.92786e-154
1.15098e-155
4.63022e-157
1.9116e-158
8.12392e-160
3.56465e-161
1.61922e-162
7.62943e-164
3.73314e-165
1.89849e-166
1.00452e-167
5.53897e-169
3.1898e-170
1.92334e-171
1.21763e-172
8.11156e-174
9.99709e-125
3.3613e-126
1.13268e-127
3.82009e-129
1.28827e-130
4.34591e-132
1.46789e-133
4.96895e-135
1.68721e-136
5.75111e-138
1.96948e-139
6.7814e-141
2.34981e-142
8.20177e-144
2.88666e-145
1.02564e-146
3.68348e-148
1.33903e-149
4.93479e-151
1.84697e-152
7.03422e-154
2.73216e-155
1.08497e-156
4.41729e-158
1.8493e-159
7.98419e-161
3.56402e-162
1.64802e-163
7.90227e-165
3.93089e-166
2.02967e-167
1.08952e-168
6.09651e-170
3.56767e-171
2.19028e-172
1.4147e-173
9.6256e-175
3.62313e-126
1.21258e-127
4.06893e-129
1.36625e-130
4.58807e-132
1.54203e-133
5.19223e-135
1.75316e-136
5.94084e-138
2.02195e-139
6.9173e-141
2.38078e-142
8.25127e-144
2.88262e-145
1.01628e-146
3.62021e-148
1.30482e-149
4.76573e-151
1.76688e-152
6.66217e-154
2.56018e-155
1.00505e-156
4.04059e-158
1.66792e-159
7.0875e-161
3.10776e-162
1.40916e-163
6.61851e-165
3.2241e-166
1.63085e-167
8.57874e-169
4.70273e-170
2.69346e-171
1.61633e-172
1.01864e-173
6.75867e-175
4.7174e-176
3.75162e-128
1.25133e-129
4.18437e-131
1.39972e-132
4.68471e-134
1.57031e-135
5.27685e-137
1.77913e-138
6.02308e-140
2.04901e-141
7.0104e-143
2.41441e-144
8.38063e-146
2.93485e-147
1.03817e-148
3.7146e-150
1.34637e-151
4.9516e-153
1.85128e-154
7.05082e-156
2.74182e-157
1.09127e-158
4.45689e-160
1.87273e-161
8.11521e-163
3.63326e-164
1.68296e-165
8.07302e-167
4.01335e-168
2.07014e-169
1.11039e-170
6.21376e-172
3.64062e-173
2.24056e-174
1.45105e-175
9.91197e-177
7.11173e-178
1.42425e-127
4.76197e-129
1.59568e-130
5.34678e-132
1.79165e-133
6.00925e-135
2.01929e-136
6.80337e-138
2.29984e-139
7.80548e-141
2.66132e-142
9.12127e-144
3.14432e-145
1.09081e-146
3.80998e-148
1.34029e-149
4.74923e-151
1.69472e-152
6.08534e-154
2.19523e-155
7.93256e-157
2.85718e-158
1.01754e-159
3.53885e-161
1.18041e-162
3.72511e-164
1.12623e-165
3.86091e-167
1.83989e-168
9.79126e-170
5.51784e-171
3.52347e-172
3.43128e-173
2.46739e-174
1.60112e-175
9.76435e-177
4.98908e-178
1.32923e-125
4.4595e-127
1.49953e-128
5.04415e-130
1.69623e-131