/*--------------------------------*- C++ -*----------------------------------*\
| =========                 |                                                 |
| \\      /  F ield         | OpenFOAM: The Open Source CFD Toolbox           |
|  \\    /   O peration     | Version:  2.3.1                                 |
|   \\  /    A nd           | Web:      www.OpenFOAM.org                      |
|    \\/     M anipulation  |                                                 |
\*---------------------------------------------------------------------------*/
FoamFile
{
    version     2.0;
    format      ascii;
    class       volVectorField;
    location    "10";
    object      U;
}
// * * * * * * * * * * * * * * * * * * * * * * * * * * * * * * * * * * * * * //

dimensions      [0 1 -1 0 0 0 0];

internalField   nonuniform List<vector> 
37530
(
(0.00458682 -1.46705e-05 -1.92453e-05)
(0.00469915 -1.58367e-05 -2.07004e-05)
(0.00482007 -1.70818e-05 -2.22573e-05)
(0.00495014 -1.84039e-05 -2.39161e-05)
(0.00508994 -1.98087e-05 -2.56759e-05)
(0.00524006 -2.13091e-05 -2.75376e-05)
(0.00540109 -2.29064e-05 -2.95086e-05)
(0.00557365 -2.45826e-05 -3.15968e-05)
(0.00575832 -2.63041e-05 -3.38035e-05)
(0.00595556 -2.80289e-05 -3.61219e-05)
(0.00616568 -2.97081e-05 -3.85299e-05)
(0.00638868 -3.12557e-05 -4.09874e-05)
(0.00662412 -3.25212e-05 -4.34356e-05)
(0.00687078 -3.32696e-05 -4.57831e-05)
(0.00712637 -3.31176e-05 -4.78792e-05)
(0.00738678 -3.14223e-05 -4.94725e-05)
(0.0076449 -2.70138e-05 -5.01306e-05)
(0.0078884 -1.75898e-05 -4.90782e-05)
(0.00809536 1.5048e-06 -4.4877e-05)
(0.00822539 4.07639e-05 -3.46028e-05)
(0.0082008 0.000124684 -1.16865e-05)
(0.00786188 0.000311165 3.98086e-05)
(0.00685902 0.00074474 0.000164232)
(0.00437669 0.00181052 0.000524983)
(-0.00195361 0.00470499 0.00166734)
(-0.0179849 0.0141831 0.00564634)
(-0.0690881 0.0251432 0.00746069)
(-0.138678 -0.000754062 -1.56995e-05)
(-0.126544 -0.0405041 -0.00370503)
(-0.0954096 -0.0407444 0.00584088)
(-0.123751 -0.0204963 0.00388604)
(-0.132183 -0.014252 -0.0122807)
(-0.0937359 -0.0131497 -0.0154948)
(-0.0755603 -0.00163864 -0.00638955)
(-0.0772982 0.00763133 -0.000972727)
(-0.0752524 0.00714798 -0.00208114)
(-0.0638696 -0.00143278 -0.00342503)
(0.00479729 -2.36241e-05 -2.50405e-05)
(0.00491168 -2.5514e-05 -2.69541e-05)
(0.00503484 -2.75195e-05 -2.90009e-05)
(0.00516734 -2.96317e-05 -3.1183e-05)
(0.00530976 -3.18522e-05 -3.3505e-05)
(0.00546273 -3.4185e-05 -3.59834e-05)
(0.00562689 -3.66057e-05 -3.86367e-05)
(0.00580287 -3.90502e-05 -4.14712e-05)
(0.00599129 -4.14193e-05 -4.44868e-05)
(0.00619265 -4.35834e-05 -4.76792e-05)
(0.00640731 -4.53697e-05 -5.10369e-05)
(0.00663537 -4.65095e-05 -5.45333e-05)
(0.00687652 -4.65757e-05 -5.81129e-05)
(0.00712982 -4.49076e-05 -6.16959e-05)
(0.00739334 -4.0466e-05 -6.51565e-05)
(0.00766374 -3.15331e-05 -6.82568e-05)
(0.00793545 -1.52908e-05 -7.06013e-05)
(0.00819929 1.31391e-05 -7.16258e-05)
(0.00844076 6.26107e-05 -7.02282e-05)
(0.00863729 0.00014956 -6.44692e-05)
(0.00875349 0.000306263 -5.05917e-05)
(0.00873477 0.0006005 -2.11744e-05)
(0.00850376 0.00118671 3.88575e-05)
(0.00795966 0.00243524 0.000165451)
(0.00714527 0.00525026 0.000444057)
(0.00639159 0.0120512 0.00116532)
(0.00922736 0.024 0.00191839)
(0.0103491 0.0291532 -0.00284156)
(0.0144754 0.0236901 -0.00602895)
(0.00727781 0.0205946 -0.00041305)
(-0.00926988 0.0188092 0.00564612)
(-0.0287088 0.0144714 0.00746852)
(-0.0518249 0.0121358 0.00431283)
(-0.064843 0.0154595 -0.00207078)
(-0.0580229 0.0199802 -0.00600951)
(-0.0449532 0.0242355 -0.00762808)
(-0.0292864 0.0266172 -0.0104351)
(0.00482881 -1.92122e-05 -2.74794e-05)
(0.00494331 -2.07828e-05 -2.95878e-05)
(0.00506662 -2.24342e-05 -3.18397e-05)
(0.0051993 -2.41448e-05 -3.42363e-05)
(0.00534193 -2.58964e-05 -3.67924e-05)
(0.00549518 -2.76543e-05 -3.95396e-05)
(0.00565971 -2.93503e-05 -4.24983e-05)
(0.0058362 -3.08757e-05 -4.56708e-05)
(0.00602531 -3.20744e-05 -4.90523e-05)
(0.00622757 -3.27355e-05 -5.26355e-05)
(0.00644343 -3.25665e-05 -5.64174e-05)
(0.00667313 -3.11315e-05 -6.03791e-05)
(0.00691659 -2.77644e-05 -6.44724e-05)
(0.0071732 -2.14722e-05 -6.8628e-05)
(0.00744168 -1.07096e-05 -7.27205e-05)
(0.00771958 6.90887e-06 -7.65956e-05)
(0.00800273 3.51979e-05 -7.99562e-05)
(0.00828435 8.03571e-05 -8.22315e-05)
(0.0085531 0.000152814 -8.24968e-05)
(0.00879002 0.000270186 -7.89933e-05)
(0.00896455 0.000463713 -6.85722e-05)
(0.00902969 0.000789799 -4.52028e-05)
(0.00892013 0.0013496 3.3013e-06)
(0.00856644 0.00231879 0.000100133)
(0.00798612 0.00400048 0.000294254)
(0.00742061 0.00677126 0.000675921)
(0.00861448 0.0108895 0.00127494)
(0.012296 0.00883967 0.00128383)
(0.0154807 -0.00280383 0.0010675)
(0.0167002 -0.0109351 0.00139627)
(0.0167183 -0.00949424 0.00158632)
(0.0154099 -0.00526643 0.00157522)
(0.011749 -0.00192934 0.00187981)
(0.00519879 0.00109491 0.00285232)
(-0.00359341 0.00463051 0.00358179)
(-0.0119327 0.0100038 0.00283551)
(-0.0148654 0.0155119 0.000899856)
(0.00483599 -1.15412e-05 -2.76572e-05)
(0.00495049 -1.25448e-05 -2.97849e-05)
(0.00507381 -1.35817e-05 -3.20553e-05)
(0.00520654 -1.46159e-05 -3.44728e-05)
(0.00534928 -1.55978e-05 -3.70606e-05)
(0.00550271 -1.6449e-05 -3.98498e-05)
(0.00566752 -1.70626e-05 -4.28558e-05)
(0.00584446 -1.7295e-05 -4.608e-05)
(0.0060342 -1.69506e-05 -4.95128e-05)
(0.00623738 -1.57584e-05 -5.31482e-05)
(0.00645454 -1.33389e-05 -5.69866e-05)
(0.00668612 -9.14659e-06 -6.10029e-05)
(0.00693232 -2.37557e-06 -6.5179e-05)
(0.007193 8.20009e-06 -6.94501e-05)
(0.00746754 2.44059e-05 -7.37429e-05)
(0.00775464 4.89664e-05 -7.79016e-05)
(0.00805223 8.61366e-05 -8.17209e-05)
(0.00835716 0.000142657 -8.48414e-05)
(0.00866527 0.000229325 -8.66647e-05)
(0.00897286 0.000363981 -8.62425e-05)
(0.00927952 0.000575757 -8.2226e-05)
(0.00959321 0.000912326 -7.24942e-05)
(0.00994124 0.00145209 -5.41986e-05)
(0.010393 0.00231847 -2.31917e-05)
(0.0111375 0.00368469 2.65204e-05)
(0.0125049 0.00570632 8.72825e-05)
(0.015419 0.00842592 0.000133251)
(0.0204071 0.0103014 -0.000150181)
(0.0245006 0.00998777 -0.000620114)
(0.0242185 0.00936401 -0.000443718)
(0.0214982 0.00920295 9.94095e-05)
(0.0198162 0.00901243 0.000489607)
(0.0193316 0.00912592 0.000688578)
(0.0192465 0.00994444 0.00094094)
(0.019042 0.0108692 0.00136055)
(0.0185527 0.0114792 0.0018088)
(0.0185086 0.0117528 0.00190751)
(0.00483763 -4.09963e-06 -2.72251e-05)
(0.00495212 -4.55838e-06 -2.93288e-05)
(0.00507547 -4.99984e-06 -3.15768e-05)
(0.00520828 -5.36902e-06 -3.39788e-05)
(0.00535118 -5.58829e-06 -3.65572e-05)
(0.00550486 -5.55206e-06 -3.93316e-05)
(0.00567007 -5.13232e-06 -4.23137e-05)
(0.00584757 -4.1702e-06 -4.5509e-05)
(0.00603811 -2.44783e-06 -4.89115e-05)
(0.0062424 3.39678e-07 -5.25148e-05)
(0.00646113 4.62153e-06 -5.63212e-05)
(0.00669492 1.10108e-05 -6.0336e-05)
(0.00694431 2.03947e-05 -6.45136e-05)
(0.00720962 3.40814e-05 -6.88104e-05)
(0.00749093 5.39507e-05 -7.31552e-05)
(0.007788 8.27812e-05 -7.7461e-05)
(0.0081003 0.000124653 -8.15914e-05)
(0.00842698 0.000185605 -8.5303e-05)
(0.00876677 0.00027454 -8.81752e-05)
(0.00911735 0.000404383 -8.95053e-05)
(0.00947538 0.00059292 -8.80462e-05)
(0.00983922 0.00086457 -8.18436e-05)
(0.0102146 0.00124979 -6.8022e-05)
(0.0106252 0.00177996 -4.27469e-05)
(0.011136 0.00247041 -9.03938e-07)
(0.0118707 0.00323817 6.00525e-05)
(0.013073 0.00384592 0.000137104)
(0.0148803 0.00323068 0.000191177)
(0.016793 0.000384016 0.000216083)
(0.0183306 -0.00281472 0.000258685)
(0.0196889 -0.00388551 0.000268576)
(0.021054 -0.00344202 0.000243426)
(0.0224324 -0.00238832 0.000242625)
(0.023938 -0.000998836 0.000302293)
(0.0256641 0.000633976 0.000409087)
(0.0276211 0.00238462 0.0005418)
(0.0298952 0.00393429 0.000666492)
(0.00483798 2.06402e-06 -2.68487e-05)
(0.00495249 2.05886e-06 -2.89399e-05)
(0.00507591 2.12426e-06 -3.1178e-05)
(0.00520887 2.32999e-06 -3.35759e-05)
(0.005352 2.76461e-06 -3.61504e-05)
(0.00550603 3.53686e-06 -3.89126e-05)
(0.00567171 4.77916e-06 -4.18731e-05)
(0.00584986 6.65667e-06 -4.50372e-05)
(0.00604129 9.39269e-06 -4.8403e-05)
(0.00624681 1.3301e-05 -5.19708e-05)
(0.00646726 1.88309e-05 -5.57494e-05)
(0.00670349 2.66257e-05 -5.97449e-05)
(0.00695632 3.75967e-05 -6.39349e-05)
(0.00722652 5.30022e-05 -6.82749e-05)
(0.00751479 7.46375e-05 -7.27154e-05)
(0.00782184 0.00010507 -7.71996e-05)
(0.00814854 0.000147977 -8.16461e-05)
(0.0084961 0.000208583 -8.59101e-05)
(0.00886661 0.000294271 -8.97527e-05)
(0.00926437 0.000415523 -9.2836e-05)
(0.00969931 0.00058761 -9.47858e-05)
(0.0101906 0.000831223 -9.54118e-05)
(0.0107711 0.0011716 -9.46461e-05)
(0.0114953 0.00163536 -9.2937e-05)
(0.0124494 0.00224099 -9.21189e-05)
(0.0137466 0.00297184 -9.79421e-05)
(0.0155067 0.00374824 -0.000121795)
(0.0176991 0.00432887 -0.000188968)
(0.0197673 0.00451479 -0.000303023)
(0.020944 0.00456443 -0.00037505)
(0.0212857 0.00466878 -0.000373062)
(0.0215602 0.00478967 -0.000342562)
(0.0222323 0.00493076 -0.00031751)
(0.023353 0.00513321 -0.000293755)
(0.0249522 0.00533318 -0.000263287)
(0.0270651 0.00549819 -0.000236487)
(0.0297914 0.0054879 -0.000227129)
(0.00483813 7.35158e-06 -2.67252e-05)
(0.0049527 7.75736e-06 -2.88323e-05)
(0.00507625 8.27997e-06 -3.10884e-05)
(0.0052094 9.00017e-06 -3.35035e-05)
(0.00535282 1.00039e-05 -3.60921e-05)
(0.00550724 1.13896e-05 -3.88649e-05)
(0.00567345 1.32849e-05 -4.18322e-05)
(0.0058523 1.58564e-05 -4.50031e-05)
(0.00604468 1.93212e-05 -4.83818e-05)
(0.0062515 2.3987e-05 -5.19722e-05)
(0.00647375 3.02986e-05 -5.57867e-05)
(0.00671246 3.8878e-05 -5.9828e-05)
(0.00696873 5.05651e-05 -6.40763e-05)
(0.00724369 6.65031e-05 -6.85073e-05)
(0.00753859 8.82804e-05 -7.30963e-05)
(0.00785491 0.000118125 -7.78202e-05)
(0.00819451 0.000159121 -8.26377e-05)
(0.0085599 0.000215419 -8.74682e-05)
(0.00895457 0.00029245 -9.21897e-05)
(0.00938337 0.000397 -9.66166e-05)
(0.00985226 0.000536629 -0.000100474)
(0.0103688 0.000717606 -0.000103232)
(0.0109447 0.000943157 -0.000104198)
(0.0115983 0.0012078 -0.00010273)
(0.0123569 0.00148636 -9.84139e-05)
(0.0132547 0.00171467 -9.1638e-05)
(0.0143229 0.0017728 -8.42609e-05)
(0.0155552 0.00146352 -8.03124e-05)
(0.0168715 0.000641897 -8.05177e-05)
(0.0182052 -0.000396416 -8.14116e-05)
(0.0195841 -0.00108288 -8.74651e-05)
(0.021055 -0.00122169 -0.000102101)
(0.0226406 -0.000986856 -0.000122208)
(0.0243679 -0.000521226 -0.000145555)
(0.0262898 7.22017e-05 -0.000172569)
(0.0283938 0.000688606 -0.000209672)
(0.0308135 0.00119353 -0.00024294)
(0.00483808 1.27032e-05 -2.687e-05)
(0.00495276 1.35726e-05 -2.9021e-05)
(0.00507647 1.45992e-05 -3.13266e-05)
(0.00520986 1.58644e-05 -3.37855e-05)
(0.00535359 1.74462e-05 -3.64121e-05)
(0.00550842 1.94328e-05 -3.92229e-05)
(0.00567518 2.19426e-05 -4.22304e-05)
(0.00585474 2.51274e-05 -4.54449e-05)
(0.00604805 2.91859e-05 -4.88768e-05)
(0.00625614 3.43992e-05 -5.25366e-05)
(0.00648013 4.11706e-05 -5.64322e-05)
(0.00672121 5.00556e-05 -6.05566e-05)
(0.00698069 6.17877e-05 -6.48996e-05)
(0.00726001 7.73464e-05 -6.94582e-05)
(0.00756084 9.80683e-05 -7.42404e-05)
(0.00788527 0.000125786 -7.92558e-05)
(0.0082359 0.000162948 -8.44816e-05)
(0.00861606 0.000212704 -8.98783e-05)
(0.00903022 0.000278974 -9.53938e-05)
(0.00948463 0.000366433 -0.000100959)
(0.00998872 0.000480508 -0.000106542)
(0.0105577 0.000627768 -0.000112251)
(0.0112137 0.000814881 -0.000118524)
(0.0119857 0.00104503 -0.000126133)
(0.0129073 0.00131469 -0.000136449)
(0.0140087 0.00160863 -0.000151825)
(0.0152967 0.0018964 -0.000175719)
(0.0167248 0.00213487 -0.000211302)
(0.0181625 0.00229941 -0.000257701)
(0.0194456 0.00242545 -0.000305202)
(0.0205542 0.00255149 -0.000342379)
(0.0216353 0.0026825 -0.000370947)
(0.022854 0.00281293 -0.000394849)
(0.0243062 0.00294419 -0.000417484)
(0.0260508 0.00305775 -0.00044015)
(0.0280853 0.00314443 -0.000467377)
(0.030478 0.00312782 -0.000497885)
(0.00483676 1.84403e-05 -2.70773e-05)
(0.00495155 1.9871e-05 -2.92766e-05)
(0.00507545 2.1506e-05 -3.1638e-05)
(0.00520908 2.34025e-05 -3.41439e-05)
(0.00535313 2.56261e-05 -3.68122e-05)
(0.00550837 2.8257e-05 -3.96672e-05)
(0.00567564 3.14009e-05 -4.27188e-05)
(0.00585587 3.51911e-05 -4.59762e-05)
(0.00605005 3.98e-05 -4.94578e-05)
(0.00625929 4.54658e-05 -5.31821e-05)
(0.00648482 5.25209e-05 -5.71536e-05)
(0.00672799 6.14165e-05 -6.13636e-05)
(0.00699026 7.27502e-05 -6.5809e-05)
(0.00727331 8.7321e-05 -7.05032e-05)
(0.00757916 0.000106206 -7.54825e-05)
(0.00791031 0.000130828 -8.07693e-05)
(0.00826981 0.000163007 -8.63553e-05)
(0.00866149 0.000204986 -9.22325e-05)
(0.00909023 0.000259405 -9.8395e-05)
(0.00956225 0.000329143 -0.000104856)
(0.0100853 0.000416846 -0.000111621)
(0.010668 0.000523474 -0.000118711)
(0.0113191 0.000645874 -0.000126163)
(0.012048 0.000775448 -0.00013382)
(0.0128655 0.000894457 -0.000141714)
(0.0137809 0.000972458 -0.000150134)
(0.0147991 0.000967279 -0.000159555)
(0.0159157 0.000837253 -0.000170562)
(0.0171184 0.000570458 -0.000183188)
(0.0184011 0.000234006 -0.00019723)
(0.019774 -3.58682e-05 -0.000213326)
(0.0212535 -0.000153067 -0.000232555)
(0.0228573 -0.000109652 -0.000254959)
(0.0245926 5.53933e-05 -0.000280799)
(0.0264972 0.000285232 -0.000308194)
(0.0285082 0.000536624 -0.000344911)
(0.0308251 0.000692808 -0.000364769)
(0.00482988 2.38724e-05 -2.67934e-05)
(0.00494481 2.58641e-05 -2.89761e-05)
(0.00506886 2.8102e-05 -3.13209e-05)
(0.0052027 3.06006e-05 -3.38042e-05)
(0.00534702 3.34126e-05 -3.64477e-05)
(0.00550259 3.66099e-05 -3.92767e-05)
(0.00567029 4.02781e-05 -4.2297e-05)
(0.00585106 4.45251e-05 -4.55175e-05)
(0.00604595 4.9493e-05 -4.89629e-05)
(0.00625611 5.53743e-05 -5.26577e-05)
(0.00648287 6.24181e-05 -5.66112e-05)
(0.00672768 7.09527e-05 -6.08179e-05)
(0.00699214 8.14193e-05 -6.52757e-05)
(0.00727812 9.44209e-05 -7.00077e-05)
(0.00758787 0.000110761 -7.50518e-05)
(0.00792413 0.000131453 -8.04341e-05)
(0.00829025 0.00015774 -8.61656e-05)
(0.00869032 0.000191093 -9.22559e-05)
(0.00912938 0.000233174 -9.87364e-05)
(0.00961368 0.000285694 -0.000105662)
(0.0101509 0.000350183 -0.000113112)
(0.0107511 0.000427804 -0.000121191)
(0.0114277 0.000519282 -0.000130113)
(0.0121966 0.000624966 -0.000140518)
(0.0130717 0.000742847 -0.000153206)
(0.0140617 0.000868235 -0.000169083)
(0.0151641 0.000994157 -0.00018923)
(0.01636 0.00111335 -0.000214355)
(0.0176151 0.00122288 -0.000243945)
(0.0188949 0.00132754 -0.000276251)
(0.0201959 0.00143229 -0.000308819)
(0.0215544 0.00153696 -0.000340391)
(0.023025 0.00163791 -0.000371032)
(0.0246458 0.00173357 -0.000400993)
(0.0264675 0.00181105 -0.000429541)
(0.0284395 0.00188518 -0.000461269)
(0.030719 0.00185616 -0.000486168)
(0.00479861 2.58083e-05 -2.44638e-05)
(0.00491352 2.80473e-05 -2.64274e-05)
(0.00503756 3.05397e-05 -2.85345e-05)
(0.0051714 3.32603e-05 -3.07706e-05)
(0.00531575 3.6245e-05 -3.31545e-05)
(0.00547139 3.95503e-05 -3.57069e-05)
(0.00563922 4.32329e-05 -3.84318e-05)
(0.00582019 4.73651e-05 -4.13353e-05)
(0.00601536 5.20532e-05 -4.44413e-05)
(0.00622595 5.7442e-05 -4.77734e-05)
(0.00645332 6.36967e-05 -5.13459e-05)
(0.00669901 7.10133e-05 -5.51549e-05)
(0.00696472 7.96563e-05 -5.9204e-05)
(0.00725243 9.00008e-05 -6.35135e-05)
(0.00756452 0.000102554 -6.81098e-05)
(0.00790389 0.000117933 -7.30278e-05)
(0.00827404 0.000136856 -7.82852e-05)
(0.00867917 0.000160146 -8.3914e-05)
(0.00912439 0.000188701 -8.99694e-05)
(0.0096158 0.000223399 -9.65297e-05)
(0.0101606 0.000264908 -0.000103724)
(0.0107669 0.000313349 -0.000111682)
(0.0114427 0.000367207 -0.000120548)
(0.0121948 0.000421349 -0.000130361)
(0.0130295 0.000467201 -0.000141428)
(0.0139519 0.000492912 -0.000153942)
(0.0149639 0.00048529 -0.000168009)
(0.0160647 0.000435287 -0.000183651)
(0.0172525 0.000345424 -0.000200727)
(0.0185284 0.00023652 -0.000218964)
(0.0198993 0.000144463 -0.000238206)
(0.0213754 9.93741e-05 -0.000258498)
(0.0229728 0.000111589 -0.000279718)
(0.0246911 0.000176734 -0.000302599)
(0.0265801 0.000267634 -0.00032499)
(0.0285125 0.000391897 -0.00035421)
(0.0308614 0.000402312 -0.000365512)
(0.00458826 1.51178e-05 -1.89683e-05)
(0.00470115 1.64369e-05 -2.04351e-05)
(0.004823 1.78962e-05 -2.20042e-05)
(0.0049545 1.94701e-05 -2.36748e-05)
(0.00509633 2.11732e-05 -2.54589e-05)
(0.00524929 2.30341e-05 -2.73722e-05)
(0.00541426 2.50727e-05 -2.94151e-05)
(0.00559217 2.73162e-05 -3.15916e-05)
(0.00578409 2.98098e-05 -3.39171e-05)
(0.00599122 3.26175e-05 -3.64048e-05)
(0.00621497 3.58049e-05 -3.90641e-05)
(0.00645686 3.94358e-05 -4.18932e-05)
(0.00671862 4.3598e-05 -4.49015e-05)
(0.00700228 4.84173e-05 -4.8103e-05)
(0.00731024 5.40776e-05 -5.15169e-05)
(0.00764546 6.07963e-05 -5.51674e-05)
(0.00801144 6.88133e-05 -5.90724e-05)
(0.00841244 7.83998e-05 -6.32778e-05)
(0.00885351 8.98413e-05 -6.78327e-05)
(0.00934066 0.000103423 -7.28209e-05)
(0.00988092 0.000119352 -7.83448e-05)
(0.0104822 0.000137718 -8.45637e-05)
(0.0111534 0.000158669 -9.17297e-05)
(0.0119038 0.000183251 -0.000100186)
(0.0127414 0.000214318 -0.000110085)
(0.0136708 0.000254953 -0.000121758)
(0.014692 0.00030767 -0.000135537)
(0.0158001 0.000373422 -0.000151565)
(0.0169877 0.000450404 -0.000169615)
(0.0182497 0.000533246 -0.000189168)
(0.0195904 0.000613353 -0.000209449)
(0.0210234 0.00068226 -0.000229868)
(0.0225722 0.00073469 -0.000249912)
(0.0242422 0.000770288 -0.000269592)
(0.0260912 0.000790665 -0.000287787)
(0.0279776 0.000803883 -0.00030971)
(0.03033 0.000802778 -0.000314876)
(0.00493821 -8.19362e-06 -5.98161e-05)
(0.00505513 -8.82445e-06 -6.43645e-05)
(0.005181 -9.49342e-06 -6.92322e-05)
(0.00531642 -1.01962e-05 -7.44241e-05)
(0.00546197 -1.09315e-05 -7.99417e-05)
(0.0056183 -1.17008e-05 -8.57958e-05)
(0.00578602 -1.24986e-05 -9.20081e-05)
(0.00596577 -1.33052e-05 -9.85975e-05)
(0.00615817 -1.40872e-05 -0.000105568)
(0.00636372 -1.48042e-05 -0.000112896)
(0.00658276 -1.53993e-05 -0.00012052)
(0.00681536 -1.57725e-05 -0.000128335)
(0.00706109 -1.57642e-05 -0.000136179)
(0.00731884 -1.5131e-05 -0.00014379)
(0.00758643 -1.34829e-05 -0.000150746)
(0.0078599 -1.01681e-05 -0.000156336)
(0.0081324 -4.01634e-06 -0.000159344)
(0.00839208 7.19435e-06 -0.000157609)
(0.00861802 2.79745e-05 -0.000147143)
(0.00877217 6.83368e-05 -0.000119988)
(0.00878279 0.000151341 -5.90347e-05)
(0.00850723 0.000330444 7.5498e-05)
(0.00766032 0.000734617 0.000389346)
(0.00561881 0.00167864 0.00120361)
(0.000981535 0.00403078 0.00343359)
(-0.00847175 0.0108686 0.010803)
(-0.0322495 0.0254829 0.019532)
(-0.0922832 0.020413 0.0103445)
(-0.122286 -0.0186375 -0.00581658)
(-0.0935649 -0.0483116 0.00194024)
(-0.0720076 -0.0449715 0.01145)
(-0.0721757 -0.0360805 -0.000681828)
(-0.0676074 -0.0258316 -0.00952305)
(-0.0677343 -0.00723815 -0.00947581)
(-0.0650692 0.00858539 -0.0129747)
(-0.056226 0.0165096 -0.0197315)
(-0.049787 0.0204312 -0.0191875)
(0.00512405 -1.45449e-05 -7.31815e-05)
(0.00524307 -1.56562e-05 -7.87923e-05)
(0.00537121 -1.6828e-05 -8.47978e-05)
(0.00550909 -1.80451e-05 -9.1208e-05)
(0.00565734 -1.92897e-05 -9.80425e-05)
(0.00581662 -2.05447e-05 -0.000105343)
(0.00598759 -2.178e-05 -0.000113148)
(0.00617091 -2.29399e-05 -0.000121473)
(0.00636721 -2.39377e-05 -0.00013032)
(0.00657705 -2.46473e-05 -0.000139672)
(0.0068008 -2.48817e-05 -0.000149497)
(0.0070386 -2.43481e-05 -0.000159713)
(0.0072902 -2.25994e-05 -0.000170172)
(0.00755473 -1.89613e-05 -0.00018065)
(0.00783041 -1.23816e-05 -0.000190774)
(0.00811402 -1.16176e-06 -0.000199891)
(0.00840019 1.74926e-05 -0.000206947)
(0.00868011 4.8399e-05 -0.000210243)
(0.00893985 0.000100186 -0.000206692)
(0.009158 0.000188718 -0.000190948)
(0.00930148 0.000344551 -0.000152882)
(0.0093204 0.000630493 -7.30339e-05)
(0.00914907 0.00118502 8.79963e-05)
(0.00871329 0.00231224 0.000414752)
(0.00813039 0.00472789 0.001084)
(0.00759258 0.00999969 0.00247692)
(0.0113288 0.0198121 0.00459782)
(0.0164768 0.0262488 -0.00204187)
(0.0159045 0.0199527 -0.0098673)
(0.0114796 0.013921 -0.00386642)
(0.0026666 0.014951 0.00414173)
(-0.00273806 0.0143535 0.00694681)
(-0.00991838 0.0132892 0.00674315)
(-0.018585 0.0118846 0.00345038)
(-0.02126 0.00990171 -0.00118942)
(-0.018105 0.0109845 -0.00650678)
(-0.00960288 0.0148581 -0.0136357)
(0.00514325 -1.36425e-05 -7.91731e-05)
(0.00526223 -1.46759e-05 -8.52684e-05)
(0.00539036 -1.57512e-05 -9.17881e-05)
(0.00552825 -1.68366e-05 -9.87443e-05)
(0.00567656 -1.7894e-05 -0.000106179)
(0.00583596 -1.88805e-05 -0.000114154)
(0.00600713 -1.97343e-05 -0.000122713)
(0.00619078 -2.03599e-05 -0.000131869)
(0.00638755 -2.06144e-05 -0.000141618)
(0.00659805 -2.02918e-05 -0.000151946)
(0.00682274 -1.90885e-05 -0.000162835)
(0.0070619 -1.65403e-05 -0.000174225)
(0.00731549 -1.1968e-05 -0.000185991)
(0.00758301 -4.36409e-06 -0.000197935)
(0.00786325 7.80987e-06 -0.000209725)
(0.00815391 2.69453e-05 -0.000220886)
(0.00845106 5.6827e-05 -0.000230547)
(0.00874821 0.000103605 -0.000237188)
(0.00903456 0.000177502 -0.000238225)
(0.00929221 0.000295689 -0.000228845)
(0.00949275 0.000488302 -0.000200485)
(0.00959384 0.000809211 -0.000137052)
(0.00953909 0.00135357 -7.46524e-06)
(0.00927791 0.00228114 0.000247343)
(0.00886138 0.0038564 0.000733388)
(0.00851938 0.00633478 0.00160645)
(0.00976929 0.0101422 0.00291931)
(0.0139607 0.00994147 0.0033229)
(0.0176631 -0.000742388 0.00271572)
(0.018878 -0.0120059 0.00314494)
(0.0190641 -0.0130941 0.00373989)
(0.0188405 -0.00934797 0.00383529)
(0.0177938 -0.00572921 0.00447813)
(0.0157428 -0.00277328 0.00626563)
(0.0127718 -0.000618748 0.00810132)
(0.00904709 0.00201528 0.00828186)
(0.00696431 0.00548261 0.00523147)
(0.00514505 -9.28332e-06 -8.05568e-05)
(0.00526394 -9.98059e-06 -8.67774e-05)
(0.00539201 -1.068e-05 -9.34313e-05)
(0.00552987 -1.13352e-05 -0.000100539)
(0.0056782 -1.1892e-05 -0.000108153)
(0.00583769 -1.22843e-05 -0.000116336)
(0.00600905 -1.2419e-05 -0.000125126)
(0.00619301 -1.21617e-05 -0.000134535)
(0.00639029 -1.13216e-05 -0.000144552)
(0.00660155 -9.62734e-06 -0.000155168)
(0.00682738 -6.69089e-06 -0.000166371)
(0.00706825 -1.95077e-06 -0.000178115)
(0.0073244 5.42565e-06 -0.000190322)
(0.00759575 1.66593e-05 -0.000202823)
(0.00788181 3.35672e-05 -0.000215389)
(0.00818142 5.88914e-05 -0.000227602)
(0.00849264 9.68641e-05 -0.00023885)
(0.00881249 0.000154118 -0.000248106)
(0.00913703 0.000241246 -0.000253679)
(0.00946282 0.000375612 -0.000252934)
(0.00978983 0.000585408 -0.00024211)
(0.0101261 0.000916224 -0.000215415)
(0.0104987 0.00144168 -0.000164959)
(0.0109759 0.00227527 -8.00086e-05)
(0.0117378 0.00356832 5.17928e-05)
(0.0130932 0.00543443 0.000202954)
(0.0158366 0.0078993 0.00030111)
(0.0206055 0.00965166 -0.000306709)
(0.0248667 0.0090813 -0.00160137)
(0.0249586 0.00794863 -0.00177642)
(0.0223801 0.00757879 -0.00100882)
(0.0207137 0.00736716 -0.000399754)
(0.0204438 0.00724318 6.65252e-07)
(0.02097 0.00735851 0.000482302)
(0.0219811 0.00731845 0.00117582)
(0.0234399 0.00692211 0.00196938)
(0.0258464 0.00601574 0.00240992)
(0.00514483 -3.97266e-06 -8.01288e-05)
(0.0052637 -4.2635e-06 -8.63413e-05)
(0.00539177 -4.50834e-06 -9.29954e-05)
(0.0055297 -4.6505e-06 -0.000100119)
(0.00567815 -4.62327e-06 -0.00010776)
(0.00583785 -4.34221e-06 -0.000115966)
(0.00600954 -3.69221e-06 -0.000124767)
(0.006194 -2.51624e-06 -0.000134182)
(0.006392 -5.92228e-07 -0.000144209)
(0.00660431 2.3904e-06 -0.000154842)
(0.00683164 6.86971e-06 -0.00016609)
(0.00707465 1.34669e-05 -0.000177935)
(0.00733391 2.30865e-05 -0.000190283)
(0.00760982 3.70339e-05 -0.000203015)
(0.00790255 5.71991e-05 -0.000215941)
(0.00821201 8.63482e-05 -0.000228796)
(0.00853776 0.00012854 -0.000241166)
(0.00887909 0.000189754 -0.000252332)
(0.00923488 0.000278781 -0.000261114)
(0.00960319 0.000408334 -0.000265569)
(0.0099814 0.000595847 -0.000262288)
(0.010369 0.00086504 -0.000245996)
(0.0107733 0.00124552 -0.000209042)
(0.0112202 0.00176742 -0.000141362)
(0.0117767 0.00244427 -3.08919e-05)
(0.0125657 0.0031982 0.000126629)
(0.0138171 0.00381016 0.000318687)
(0.015674 0.00337884 0.000444881)
(0.0176765 0.000809754 0.000458846)
(0.019294 -0.00238826 0.00049783)
(0.0206726 -0.0035884 0.000503537)
(0.0220426 -0.00320554 0.000449507)
(0.0234511 -0.00217641 0.000426735)
(0.0250088 -0.000898425 0.000469186)
(0.0268331 0.000468582 0.000523935)
(0.028992 0.00183289 0.00051915)
(0.0315891 0.00296437 0.00039294)
(0.0051447 1.05798e-06 -7.94394e-05)
(0.00526361 1.15267e-06 -8.5637e-05)
(0.00539177 1.34079e-06 -9.22837e-05)
(0.00552983 1.68248e-06 -9.94095e-05)
(0.0056785 2.25048e-06 -0.000107055)
(0.0058385 3.13868e-06 -0.000115252)
(0.00601063 4.4717e-06 -0.000124033)
(0.00619571 6.41688e-06 -0.000133415)
(0.00639457 9.20776e-06 -0.000143405)
(0.00660809 1.31659e-05 -0.00015401)
(0.00683712 1.87449e-05 -0.000165251)
(0.00708255 2.65928e-05 -0.000177128)
(0.00734524 3.76121e-05 -0.000189586)
(0.00762601 5.30759e-05 -0.000202525)
(0.00792567 7.47914e-05 -0.000215814)
(0.00824506 0.000105327 -0.000229286)
(0.00858512 0.000148331 -0.000242688)
(0.00894714 0.00020897 -0.000255585)
(0.00933327 0.000294534 -0.000267306)
(0.00974787 0.000415325 -0.000276901)
(0.0102007 0.000586197 -0.000283333)
(0.0107107 0.000827134 -0.000286007)
(0.0113098 0.00116219 -0.000284703)
(0.0120508 0.00161613 -0.000280704)
(0.0130157 0.0022045 -0.000279251)
(0.0143115 0.00290792 -0.000296214)
(0.0160471 0.00364451 -0.00036238)
(0.0181948 0.00418286 -0.000542062)
(0.0202493 0.00430668 -0.000855804)
(0.0214668 0.00423269 -0.00109383)
(0.0218693 0.0041886 -0.00114482)
(0.0222117 0.00417796 -0.00109843)
(0.0229684 0.00420412 -0.00105253)
(0.0241893 0.00429646 -0.00101679)
(0.0258876 0.00441397 -0.000990141)
(0.028088 0.00451818 -0.0010021)
(0.0308752 0.00448769 -0.00107797)
(0.00514491 5.62894e-06 -7.91714e-05)
(0.00526391 6.08658e-06 -8.54018e-05)
(0.0053922 6.67914e-06 -9.20883e-05)
(0.00553046 7.46464e-06 -9.9254e-05)
(0.00567939 8.51563e-06 -0.000106934)
(0.00583976 9.92682e-06 -0.00011516)
(0.0060124 1.18217e-05 -0.000123965)
(0.00619816 1.4368e-05 -0.000133374)
(0.00639797 1.77946e-05 -0.000143405)
(0.00661278 2.24178e-05 -0.000154077)
(0.00684361 2.8678e-05 -0.000165412)
(0.00709151 3.71843e-05 -0.000177417)
(0.00735762 4.87774e-05 -0.000190054)
(0.00764317 6.46205e-05 -0.000203268)
(0.00794948 8.63289e-05 -0.000216998)
(0.00827813 0.000116136 -0.000231169)
(0.00863105 0.000157087 -0.000245645)
(0.0090108 0.000213281 -0.00026019)
(0.00942092 0.000290089 -0.000274449)
(0.00986632 0.000394235 -0.000287907)
(0.0103532 0.00053321 -0.000299813)
(0.0108895 0.000713324 -0.000308766)
(0.0114874 0.00093793 -0.000312989)
(0.0121661 0.001202 -0.000310874)
(0.0129536 0.00148165 -0.000301605)
(0.0138848 0.00171619 -0.000286786)
(0.0149918 0.00179281 -0.000272176)
(0.0162712 0.00153021 -0.000269299)
(0.0176462 0.00079038 -0.00028324)
(0.019042 -0.000168979 -0.000304641)
(0.0204683 -0.000797184 -0.000339832)
(0.0219669 -0.000892061 -0.000396458)
(0.0235676 -0.000624279 -0.00046911)
(0.0253053 -0.000143072 -0.000555096)
(0.0272359 0.000446261 -0.000657295)
(0.0293691 0.00104804 -0.000790772)
(0.0318046 0.00152973 -0.000934438)
(0.00514544 1.00412e-05 -7.93432e-05)
(0.00526458 1.08743e-05 -8.56527e-05)
(0.00539304 1.18785e-05 -9.24285e-05)
(0.00553154 1.31017e-05 -9.96741e-05)
(0.00568078 1.46123e-05 -0.000107426)
(0.00584156 1.65004e-05 -0.000115726)
(0.00601473 1.88779e-05 -0.000124607)
(0.00620121 2.18975e-05 -0.000134098)
(0.00640197 2.57705e-05 -0.000144235)
(0.00661806 3.07877e-05 -0.000155044)
(0.00685062 3.73447e-05 -0.000166543)
(0.00710089 4.59799e-05 -0.000178734)
(0.00737023 5.74293e-05 -0.000191601)
(0.00766016 7.26949e-05 -0.000205145)
(0.00797246 9.31427e-05 -0.000219378)
(0.00830926 0.000120601 -0.0002343)
(0.0086732 0.00015748 -0.000249845)
(0.00906765 0.000206887 -0.000265911)
(0.00949715 0.000272701 -0.000282357)
(0.00996796 0.000359565 -0.000299013)
(0.0104895 0.000472854 -0.000315782)
(0.0110768 0.000618943 -0.000332971)
(0.0117516 0.00080415 -0.000351789)
(0.0125421 0.00103125 -0.00037438)
(0.0134805 0.00129608 -0.000404561)
(0.0145956 0.00158264 -0.000448748)
(0.015893 0.00185955 -0.000516139)
(0.0173282 0.00208246 -0.000615059)
(0.0187777 0.00222252 -0.000744236)
(0.0200853 0.00230878 -0.000878989)
(0.0212322 0.00238247 -0.000987741)
(0.0223628 0.00245934 -0.00107124)
(0.0236398 0.0025436 -0.00114079)
(0.0251561 0.00264065 -0.00120801)
(0.026966 0.00273755 -0.00127795)
(0.0290663 0.00282193 -0.00136364)
(0.0315185 0.00282999 -0.00145866)
(0.00514604 1.41445e-05 -7.93247e-05)
(0.00526535 1.53576e-05 -8.5689e-05)
(0.00539404 1.67739e-05 -9.25253e-05)
(0.0055328 1.84188e-05 -9.98185e-05)
(0.00568239 2.0353e-05 -0.000107611)
(0.00584359 2.26556e-05 -0.000115951)
(0.0060173 2.54201e-05 -0.000124867)
(0.00620448 2.87773e-05 -0.000134395)
(0.00640615 3.29115e-05 -0.000144582)
(0.00662344 3.80745e-05 -0.000155466)
(0.0068576 4.45935e-05 -0.000167071)
(0.00711001 5.29065e-05 -0.000179394)
(0.00738219 6.36118e-05 -0.000192442)
(0.00767595 7.75221e-05 -0.000206257)
(0.00799336 9.5724e-05 -0.000220901)
(0.00833694 0.00011962 -0.000236418)
(0.00870978 0.000151003 -0.000252798)
(0.00911577 0.000192087 -0.000270035)
(0.00955982 0.000245492 -0.000288134)
(0.0100482 0.00031409 -0.00030713)
(0.0105887 0.000400532 -0.000327081)
(0.0111902 0.000505883 -0.000348061)
(0.0118617 0.000627247 -0.000370142)
(0.0126128 0.000756387 -0.000393064)
(0.013455 0.000876317 -0.000417097)
(0.0143983 0.000957999 -0.000443202)
(0.015448 0.000961527 -0.000472921)
(0.0166009 0.000847891 -0.000508046)
(0.0178448 0.000606286 -0.000549229)
(0.019171 0.000300261 -0.000596093)
(0.0205855 5.9885e-05 -0.00064989)
(0.0221024 -3.16097e-05 -0.000712695)
(0.0237395 3.18964e-05 -0.00078478)
(0.0255085 0.000210647 -0.000866658)
(0.0274455 0.000449435 -0.000954822)
(0.0295128 0.000704399 -0.00106347)
(0.031847 0.000871066 -0.00114972)
(0.00514455 1.69825e-05 -7.77489e-05)
(0.00526409 1.84742e-05 -8.39912e-05)
(0.00539302 2.01823e-05 -9.06948e-05)
(0.00553208 2.21056e-05 -9.78393e-05)
(0.00568201 2.42938e-05 -0.000105469)
(0.00584365 2.68097e-05 -0.000113636)
(0.00601789 2.97235e-05 -0.00012236)
(0.00620571 3.31345e-05 -0.000131678)
(0.00640821 3.71942e-05 -0.000141647)
(0.00662657 4.21077e-05 -0.000152319)
(0.00686211 4.81184e-05 -0.000163725)
(0.00711632 5.55439e-05 -0.000175867)