/*--------------------------------*- C++ -*----------------------------------*\
| =========                 |                                                 |
| \\      /  F ield         | OpenFOAM: The Open Source CFD Toolbox           |
|  \\    /   O peration     | Version:  2.3.1                                 |
|   \\  /    A nd           | Web:      www.OpenFOAM.org                      |
|    \\/     M anipulation  |                                                 |
\*---------------------------------------------------------------------------*/
FoamFile
{
    version     2.0;
    format      ascii;
    class       volVectorField;
    location    "10";
    object      U_0;
}
// * * * * * * * * * * * * * * * * * * * * * * * * * * * * * * * * * * * * * //

dimensions      [0 1 -1 0 0 0 0];

internalField   nonuniform List<vector> 
37530
(
(0.00458671 -1.46675e-05 -1.92443e-05)
(0.00469903 -1.58335e-05 -2.06995e-05)
(0.00481993 -1.70783e-05 -2.22564e-05)
(0.00494999 -1.84003e-05 -2.39152e-05)
(0.00508978 -1.98049e-05 -2.5675e-05)
(0.00523988 -2.1305e-05 -2.75367e-05)
(0.0054009 -2.29021e-05 -2.95077e-05)
(0.00557345 -2.45783e-05 -3.1596e-05)
(0.00575811 -2.62997e-05 -3.38029e-05)
(0.00595533 -2.80247e-05 -3.61215e-05)
(0.00616544 -2.97042e-05 -3.85299e-05)
(0.00638844 -3.12524e-05 -4.0988e-05)
(0.00662387 -3.25191e-05 -4.34369e-05)
(0.00687053 -3.32696e-05 -4.57855e-05)
(0.00712614 -3.3121e-05 -4.78835e-05)
(0.00738658 -3.14319e-05 -4.94796e-05)
(0.00764477 -2.70348e-05 -5.01424e-05)
(0.00788838 -1.76332e-05 -4.90984e-05)
(0.00809555 1.41677e-06 -4.49108e-05)
(0.00822595 4.0574e-05 -3.46635e-05)
(0.00820208 0.000124262 -1.18051e-05)
(0.00786455 0.000310213 3.95555e-05)
(0.00686486 0.000742524 0.000163609)
(0.00438902 0.00180484 0.000522993)
(-0.00192146 0.00468928 0.00166037)
(-0.0178997 0.014135 0.00562996)
(-0.0688413 0.0251556 0.00747335)
(-0.138582 -0.000600791 1.60796e-05)
(-0.126739 -0.04044 -0.00371908)
(-0.095435 -0.0408208 0.00580959)
(-0.123654 -0.0205557 0.00393238)
(-0.132306 -0.0142381 -0.012237)
(-0.0938916 -0.0131593 -0.0155206)
(-0.0756001 -0.00167574 -0.00642424)
(-0.0773081 0.00761805 -0.000981768)
(-0.0752796 0.00715586 -0.00207301)
(-0.0639123 -0.00142073 -0.00342046)
(0.00479715 -2.3619e-05 -2.50385e-05)
(0.00491153 -2.55086e-05 -2.69521e-05)
(0.00503468 -2.75139e-05 -2.89987e-05)
(0.00516716 -2.96258e-05 -3.11808e-05)
(0.00530957 -3.18461e-05 -3.35026e-05)
(0.00546253 -3.41787e-05 -3.5981e-05)
(0.00562667 -3.65993e-05 -3.86343e-05)
(0.00580264 -3.9044e-05 -4.14687e-05)
(0.00599104 -4.14136e-05 -4.44844e-05)
(0.00619239 -4.35785e-05 -4.76768e-05)
(0.00640704 -4.53662e-05 -5.10348e-05)
(0.00663509 -4.65084e-05 -5.45315e-05)
(0.00687623 -4.65785e-05 -5.81117e-05)
(0.00712953 -4.49166e-05 -6.16956e-05)
(0.00739307 -4.0485e-05 -6.51577e-05)
(0.00766349 -3.15685e-05 -6.82604e-05)
(0.00793525 -1.53533e-05 -7.06088e-05)
(0.00819917 1.30301e-05 -7.16392e-05)
(0.00844077 6.24225e-05 -7.02521e-05)
(0.00863751 0.000149232 -6.45109e-05)
(0.00875403 0.000305669 -5.06665e-05)
(0.00873581 0.000599365 -2.13134e-05)
(0.00850554 0.00118438 3.85875e-05)
(0.00796237 0.00242982 0.000164865)
(0.00714928 0.00523817 0.000442903)
(0.00638849 0.01202 0.001161)
(0.00921762 0.0239681 0.00192377)
(0.0103467 0.02917 -0.00282264)
(0.0144733 0.0237156 -0.00603586)
(0.00732153 0.0206066 -0.000439582)
(-0.00922731 0.0188282 0.00563623)
(-0.0286661 0.0144946 0.00747238)
(-0.0517824 0.0121383 0.00432836)
(-0.0648468 0.0154495 -0.00205858)
(-0.0580595 0.0199766 -0.00600929)
(-0.044984 0.0242342 -0.00762985)
(-0.0293169 0.0266187 -0.0104325)
(0.00482866 -1.92077e-05 -2.74769e-05)
(0.00494316 -2.07781e-05 -2.95852e-05)
(0.00506645 -2.24292e-05 -3.18369e-05)
(0.00519911 -2.41398e-05 -3.42334e-05)
(0.00534174 -2.58914e-05 -3.67893e-05)
(0.00549497 -2.76494e-05 -3.95364e-05)
(0.00565948 -2.93457e-05 -4.2495e-05)
(0.00583596 -3.08718e-05 -4.56674e-05)
(0.00602505 -3.20717e-05 -4.90488e-05)
(0.0062273 -3.27345e-05 -5.26321e-05)
(0.00644315 -3.25683e-05 -5.64141e-05)
(0.00667284 -3.11374e-05 -6.0376e-05)
(0.00691628 -2.77767e-05 -6.44698e-05)
(0.0071729 -2.14944e-05 -6.86261e-05)
(0.00744138 -1.07471e-05 -7.27198e-05)
(0.0077193 6.84747e-06 -7.65969e-05)
(0.00800248 3.5099e-05 -7.99609e-05)
(0.00828417 8.01982e-05 -8.22417e-05)
(0.00855303 0.000152557 -8.25171e-05)
(0.00879016 0.000269765 -7.9031e-05)
(0.00896503 0.000463002 -6.86411e-05)
(0.0090307 0.000788564 -4.53304e-05)
(0.0089219 0.00134742 3.05156e-06)
(0.0085691 0.00231496 9.96678e-05)
(0.00798945 0.00399392 0.000293398)
(0.00742145 0.00675967 0.000674181)
(0.00860574 0.0108814 0.00127332)
(0.0122845 0.00886932 0.00128599)
(0.0154751 -0.00276417 0.00106731)
(0.0167017 -0.010931 0.00139555)
(0.0167225 -0.00950679 0.00158687)
(0.0154176 -0.00527351 0.00157647)
(0.0117629 -0.00193393 0.00187936)
(0.00521796 0.00109006 0.00285024)
(-0.00357266 0.00462567 0.00358182)
(-0.0119142 0.00999659 0.00283836)
(-0.0148583 0.0155049 0.000903786)
(0.00483584 -1.15378e-05 -2.76545e-05)
(0.00495033 -1.25414e-05 -2.97821e-05)
(0.00507364 -1.35784e-05 -3.20524e-05)
(0.00520636 -1.46127e-05 -3.44697e-05)
(0.00534908 -1.55948e-05 -3.70573e-05)
(0.00550249 -1.64465e-05 -3.98464e-05)
(0.0056673 -1.70608e-05 -4.28523e-05)
(0.00584422 -1.72944e-05 -4.60763e-05)
(0.00603394 -1.69517e-05 -4.95091e-05)
(0.0062371 -1.5762e-05 -5.31444e-05)
(0.00645425 -1.33463e-05 -5.69829e-05)
(0.00668582 -9.15964e-06 -6.09993e-05)
(0.00693201 -2.39695e-06 -6.51758e-05)
(0.00719268 8.16631e-06 -6.94474e-05)
(0.00746721 2.43535e-05 -7.37412e-05)
(0.00775433 4.8886e-05 -7.79016e-05)
(0.00805193 8.60131e-05 -8.17234e-05)
(0.00835688 0.000142467 -8.48478e-05)
(0.00866504 0.000229026 -8.66772e-05)
(0.00897266 0.000363507 -8.62637e-05)
(0.00927932 0.000574998 -8.22594e-05)
(0.00959293 0.000911109 -7.25453e-05)
(0.00994069 0.00145013 -5.42748e-05)
(0.0103918 0.00231535 -2.33046e-05)
(0.0111349 0.00367994 2.63598e-05)
(0.0124992 0.00569951 8.70929e-05)
(0.0154073 0.00841923 0.0001335)
(0.0203928 0.0103022 -0.000148469)
(0.0244971 0.00999392 -0.000619681)
(0.0242284 0.00936897 -0.000445399)
(0.021508 0.00920672 9.79962e-05)
(0.0198209 0.0090164 0.000488946)
(0.0193346 0.00912727 0.000688109)
(0.0192492 0.00994298 0.000940215)
(0.0190461 0.0108683 0.00135943)
(0.0185594 0.0114792 0.00180739)
(0.0185165 0.0117528 0.00190684)
(0.00483748 -4.09794e-06 -2.72225e-05)
(0.00495196 -4.55679e-06 -2.9326e-05)
(0.0050753 -4.99843e-06 -3.15738e-05)
(0.00520809 -5.36793e-06 -3.39757e-05)
(0.00535098 -5.58771e-06 -3.65538e-05)
(0.00550464 -5.55222e-06 -3.93281e-05)
(0.00566984 -5.13356e-06 -4.23101e-05)
(0.00584732 -4.17301e-06 -4.55053e-05)
(0.00603784 -2.45289e-06 -4.89077e-05)
(0.00624212 3.31408e-07 -5.25109e-05)
(0.00646083 4.60869e-06 -5.63173e-05)
(0.00669461 1.09914e-05 -6.03323e-05)
(0.00694398 2.03659e-05 -6.45101e-05)
(0.00720929 3.40389e-05 -6.88075e-05)
(0.00749058 5.38883e-05 -7.3153e-05)
(0.00778765 8.269e-05 -7.746e-05)
(0.00809995 0.00012452 -8.15923e-05)
(0.00842664 0.00018541 -8.53069e-05)
(0.00876645 0.000274255 -8.81837e-05)
(0.00911707 0.00040397 -8.95216e-05)
(0.00947518 0.000592335 -8.80763e-05)
(0.00983913 0.00086375 -8.18961e-05)
(0.0102146 0.00124866 -6.8109e-05)
(0.0106252 0.00177848 -4.28829e-05)
(0.0111358 0.00246863 -1.10689e-06)
(0.0118695 0.00323668 5.97841e-05)
(0.0130701 0.00384645 0.000136843)
(0.014876 0.00323747 0.000191094)
(0.0167897 0.000395991 0.000215978)
(0.0183293 -0.00280717 0.000258623)
(0.0196882 -0.00388449 0.000268705)
(0.0210538 -0.00344285 0.000243626)
(0.0224326 -0.00238993 0.000242711)
(0.0239381 -0.00100093 0.000302158)
(0.0256638 0.000631864 0.000408833)
(0.0276209 0.0023825 0.000541491)
(0.0298955 0.0039326 0.000666097)
(0.00483783 2.06414e-06 -2.6846e-05)
(0.00495233 2.05876e-06 -2.89371e-05)
(0.00507574 2.12382e-06 -3.1175e-05)
(0.00520868 2.32907e-06 -3.35727e-05)
(0.0053518 2.76301e-06 -3.61471e-05)
(0.00550581 3.53429e-06 -3.89092e-05)
(0.00567148 4.77525e-06 -4.18695e-05)
(0.00584961 6.65092e-06 -4.50335e-05)
(0.00604102 9.38439e-06 -4.83992e-05)
(0.00624653 1.32892e-05 -5.19669e-05)
(0.00646696 1.88141e-05 -5.57455e-05)
(0.00670317 2.66019e-05 -5.97411e-05)
(0.00695599 3.75632e-05 -6.39313e-05)
(0.00722617 5.29548e-05 -6.82717e-05)
(0.00751442 7.45706e-05 -7.27127e-05)
(0.00782146 0.000104975 -7.71979e-05)
(0.00814814 0.000147843 -8.16457e-05)
(0.00849569 0.000208394 -8.59117e-05)
(0.00886618 0.000294004 -8.97572e-05)
(0.0092639 0.00041514 -9.28443e-05)
(0.00969874 0.000587056 -9.47977e-05)
(0.0101898 0.000830425 -9.54258e-05)
(0.0107699 0.00117048 -9.46595e-05)
(0.0114936 0.00163385 -9.29444e-05)
(0.0124468 0.00223908 -9.21087e-05)
(0.0137428 0.00296974 -9.78855e-05)
(0.0155018 0.00374649 -0.000121636)
(0.0176938 0.00432839 -0.000188658)
(0.0197643 0.00451571 -0.000302665)
(0.0209448 0.00456545 -0.000374968)
(0.0212882 0.00466957 -0.00037317)
(0.0215622 0.00479038 -0.000342661)
(0.0222335 0.00493112 -0.000317602)
(0.0233536 0.00513316 -0.000293878)
(0.0249523 0.00533305 -0.000263464)
(0.0270648 0.00549825 -0.000236741)
(0.0297909 0.00548825 -0.000227432)
(0.00483798 7.35017e-06 -2.67225e-05)
(0.00495254 7.75562e-06 -2.88295e-05)
(0.00507608 8.27779e-06 -3.10854e-05)
(0.00520921 8.99738e-06 -3.35003e-05)
(0.00535262 1.00003e-05 -3.60888e-05)
(0.00550702 1.13848e-05 -3.88614e-05)
(0.00567322 1.32787e-05 -4.18286e-05)
(0.00585205 1.58482e-05 -4.49993e-05)
(0.00604441 1.93103e-05 -4.83779e-05)
(0.00625121 2.39725e-05 -5.19683e-05)
(0.00647344 3.0279e-05 -5.57827e-05)
(0.00671214 3.88517e-05 -5.9824e-05)
(0.00696839 5.05293e-05 -6.40725e-05)
(0.00724333 6.64544e-05 -6.85037e-05)
(0.0075382 8.82137e-05 -7.30931e-05)
(0.00785449 0.000118034 -7.78176e-05)
(0.00819408 0.000158997 -8.26361e-05)
(0.00855944 0.000215249 -8.74679e-05)
(0.00895407 0.000292219 -9.21913e-05)
(0.00938283 0.000396694 -9.66207e-05)
(0.00985168 0.000536238 -0.000100482)
(0.0103682 0.00071714 -0.000103248)
(0.010944 0.000942646 -0.000104226)
(0.0115976 0.00120733 -0.000102773)
(0.0123561 0.00148609 -9.84734e-05)
(0.0132537 0.00171492 -9.17114e-05)
(0.0143215 0.00177406 -8.43364e-05)
(0.0155536 0.0014663 -8.03748e-05)
(0.01687 0.000646251 -8.05728e-05)
(0.018204 -0.000392407 -8.14598e-05)
(0.0195831 -0.00108054 -8.74919e-05)
(0.0210542 -0.00122063 -0.000102112)
(0.0226398 -0.000986478 -0.00012222)
(0.0243672 -0.000521255 -0.000145577)
(0.0262891 7.19939e-05 -0.000172601)
(0.0283932 0.000688353 -0.0002097)
(0.0308129 0.0011934 -0.000242998)
(0.00483793 1.27003e-05 -2.68672e-05)
(0.0049526 1.35693e-05 -2.90181e-05)
(0.0050763 1.45953e-05 -3.13236e-05)
(0.00520967 1.58598e-05 -3.37823e-05)
(0.00535339 1.74407e-05 -3.64087e-05)
(0.0055082 1.94262e-05 -3.92194e-05)
(0.00567494 2.19344e-05 -4.22267e-05)
(0.00585448 2.51173e-05 -4.54411e-05)
(0.00604778 2.91731e-05 -4.88728e-05)
(0.00625585 3.43829e-05 -5.25326e-05)
(0.00647982 4.11496e-05 -5.64281e-05)
(0.00672088 5.00283e-05 -6.05525e-05)
(0.00698033 6.17519e-05 -6.48955e-05)
(0.00725963 7.72991e-05 -6.94543e-05)
(0.00756044 9.80055e-05 -7.42367e-05)
(0.00788484 0.000125703 -7.92525e-05)
(0.00823543 0.000162837 -8.44789e-05)
(0.00861555 0.000212558 -8.98764e-05)
(0.00902967 0.000278782 -9.5393e-05)
(0.00948401 0.000366183 -0.00010096)
(0.009988 0.000480186 -0.000106544)
(0.0105568 0.000627346 -0.000112252)
(0.0112126 0.000814335 -0.000118522)
(0.0119842 0.00104435 -0.000126122)
(0.0129053 0.00131389 -0.000136423)
(0.0140063 0.00160778 -0.000151776)
(0.015294 0.00189565 -0.000175634)
(0.0167222 0.00213435 -0.000211184)
(0.0181605 0.00229917 -0.000257562)
(0.0194447 0.0024253 -0.000305091)
(0.0205541 0.00255134 -0.000342314)
(0.0216355 0.00268233 -0.000370911)
(0.0228542 0.00281272 -0.000394835)
(0.0243063 0.00294393 -0.000417488)
(0.0260508 0.00305752 -0.000440172)
(0.0280852 0.00314426 -0.000467416)
(0.0304778 0.00312785 -0.000497941)
(0.00483661 1.84359e-05 -2.70746e-05)
(0.00495139 1.98661e-05 -2.92737e-05)
(0.00507527 2.15005e-05 -3.1635e-05)
(0.00520889 2.33963e-05 -3.41408e-05)
(0.00535293 2.56189e-05 -3.68088e-05)
(0.00550815 2.82487e-05 -3.96637e-05)
(0.0056754 3.13911e-05 -4.27151e-05)
(0.00585561 3.51793e-05 -4.59724e-05)
(0.00604977 3.97858e-05 -4.94539e-05)
(0.00625899 4.54485e-05 -5.31781e-05)
(0.00648451 5.24994e-05 -5.71495e-05)
(0.00672765 6.13896e-05 -6.13594e-05)
(0.00698989 7.2716e-05 -6.58048e-05)
(0.00727292 8.72773e-05 -7.0499e-05)
(0.00757874 0.00010615 -7.54785e-05)
(0.00790985 0.000130755 -8.07655e-05)
(0.00826932 0.000162913 -8.63519e-05)
(0.00866095 0.000204866 -9.22295e-05)
(0.00908964 0.000259252 -9.83926e-05)
(0.0095616 0.000328953 -0.000104854)
(0.0100845 0.000416618 -0.00011162)
(0.0106672 0.000523224 -0.000118711)
(0.0113182 0.000645642 -0.000126167)
(0.0120471 0.000775299 -0.000133828)
(0.0128645 0.000894499 -0.000141729)
(0.0137799 0.000972835 -0.000150155)
(0.014798 0.000968139 -0.000159581)
(0.0159145 0.000838665 -0.00017059)
(0.0171173 0.00057236 -0.00018322)
(0.0184001 0.000235991 -0.000197264)
(0.019773 -3.42255e-05 -0.00021336)
(0.0212526 -0.000151892 -0.000232589)
(0.0228565 -0.000108874 -0.000254994)
(0.0245919 5.58894e-05 -0.000280836)
(0.0264965 0.000285563 -0.000308239)
(0.0285077 0.000536842 -0.000344947)
(0.0308246 0.000693096 -0.000364846)
(0.00482973 2.3867e-05 -2.67908e-05)
(0.00494465 2.58582e-05 -2.89734e-05)
(0.00506869 2.80954e-05 -3.13181e-05)
(0.00520252 3.05933e-05 -3.38012e-05)
(0.00534681 3.34044e-05 -3.64445e-05)
(0.00550237 3.66006e-05 -3.92734e-05)
(0.00567005 4.02675e-05 -4.22936e-05)
(0.00585081 4.45128e-05 -4.55139e-05)
(0.00604567 4.94786e-05 -4.89592e-05)
(0.00625582 5.53573e-05 -5.26539e-05)
(0.00648256 6.23977e-05 -5.66073e-05)
(0.00672734 7.0928e-05 -6.08139e-05)
(0.00699178 8.1389e-05 -6.52717e-05)
(0.00727773 9.43833e-05 -7.00037e-05)
(0.00758744 0.000110714 -7.50479e-05)
(0.00792367 0.000131395 -8.04303e-05)
(0.00828975 0.000157666 -8.6162e-05)
(0.00868976 0.000191001 -9.22525e-05)
(0.00912877 0.000233061 -9.87333e-05)
(0.009613 0.000285556 -0.000105659)
(0.0101502 0.00035002 -0.000113109)
(0.0107502 0.000427614 -0.000121189)
(0.0114267 0.000519054 -0.000130109)
(0.0121954 0.000624689 -0.00014051)
(0.0130702 0.000742515 -0.00015319)
(0.01406 0.000867846 -0.000169055)
(0.0151624 0.000993726 -0.000189189)
(0.0163582 0.0011129 -0.000214301)
(0.0176136 0.00122243 -0.000243883)
(0.0188938 0.00132708 -0.00027619)
(0.0201952 0.00143182 -0.000308768)
(0.0215539 0.0015365 -0.000340352)
(0.0230247 0.00163747 -0.000371005)
(0.0246455 0.00173316 -0.000400979)
(0.0264672 0.0018107 -0.000429543)
(0.0284393 0.00188486 -0.000461278)
(0.0307188 0.00185604 -0.000486205)
(0.00479847 2.58027e-05 -2.44618e-05)
(0.00491337 2.80412e-05 -2.64253e-05)
(0.00503739 3.0533e-05 -2.85323e-05)
(0.00517122 3.32529e-05 -3.07683e-05)
(0.00531555 3.62369e-05 -3.3152e-05)
(0.00547118 3.95412e-05 -3.57044e-05)
(0.00563899 4.32229e-05 -3.84292e-05)
(0.00581994 4.73538e-05 -4.13326e-05)
(0.00601509 5.20403e-05 -4.44386e-05)
(0.00622566 5.74272e-05 -4.77706e-05)
(0.00645301 6.36796e-05 -5.1343e-05)
(0.00669868 7.09933e-05 -5.5152e-05)
(0.00696436 7.96325e-05 -5.92012e-05)
(0.00725203 8.99724e-05 -6.35107e-05)
(0.00756409 0.00010252 -6.81071e-05)
(0.00790342 0.000117891 -7.30252e-05)
(0.00827353 0.000136806 -7.82827e-05)
(0.00867861 0.000160085 -8.39117e-05)
(0.00912376 0.000188628 -8.99672e-05)
(0.00961511 0.000223313 -9.65275e-05)
(0.0101599 0.000264809 -0.000103721)
(0.0107661 0.000313242 -0.00011168)
(0.0114417 0.000367112 -0.000120546)
(0.0121938 0.000421308 -0.00013036)
(0.0130285 0.00046727 -0.000141427)
(0.0139508 0.000493156 -0.000153942)
(0.0149627 0.000485766 -0.000168012)
(0.0160635 0.000436009 -0.000183658)
(0.0172514 0.000346348 -0.000200738)
(0.0185274 0.000237528 -0.000218981)
(0.0198984 0.00014541 -0.000238229)
(0.0213745 0.000100175 -0.000258527)
(0.022972 0.000112219 -0.000279754)
(0.0246905 0.000177199 -0.00030264)
(0.0265795 0.00026799 -0.000325042)
(0.0285122 0.000392115 -0.000354257)
(0.0308609 0.000402655 -0.000365603)
(0.00458815 1.51145e-05 -1.89673e-05)
(0.00470102 1.64335e-05 -2.0434e-05)
(0.00482286 1.78924e-05 -2.20032e-05)
(0.00495435 1.94659e-05 -2.36737e-05)
(0.00509616 2.11687e-05 -2.54578e-05)
(0.00524911 2.30291e-05 -2.73711e-05)
(0.00541406 2.50672e-05 -2.94141e-05)
(0.00559196 2.73102e-05 -3.15905e-05)
(0.00578385 2.98031e-05 -3.39161e-05)
(0.00599097 3.261e-05 -3.64039e-05)
(0.00621469 3.57965e-05 -3.90633e-05)
(0.00645655 3.94262e-05 -4.18924e-05)
(0.00671829 4.3587e-05 -4.49008e-05)
(0.00700192 4.84046e-05 -4.81025e-05)
(0.00730985 5.40627e-05 -5.15166e-05)
(0.00764502 6.07788e-05 -5.51672e-05)
(0.00801097 6.87928e-05 -5.90723e-05)
(0.00841191 7.83755e-05 -6.3278e-05)
(0.00885292 8.98129e-05 -6.7833e-05)
(0.00934001 0.00010339 -7.28212e-05)
(0.00988019 0.000119315 -7.83449e-05)
(0.0104814 0.000137677 -8.45633e-05)
(0.0111525 0.00015862 -9.17277e-05)
(0.0119027 0.000183174 -0.000100182)
(0.0127402 0.000214182 -0.00011008)
(0.0136696 0.000254727 -0.00012175)
(0.0146907 0.000307331 -0.000135526)
(0.0157989 0.000372965 -0.000151551)
(0.0169865 0.000449849 -0.000169601)
(0.0182487 0.000532636 -0.000189156)
(0.0195896 0.00061274 -0.000209442)
(0.0210227 0.000681688 -0.000229868)
(0.0225716 0.000734187 -0.000249921)
(0.0242417 0.000769863 -0.00026961)
(0.0260907 0.000790319 -0.000287818)
(0.0279775 0.000803596 -0.00030974)
(0.0303295 0.000802568 -0.00031496)
(0.00493806 -8.19188e-06 -5.98113e-05)
(0.00505497 -8.8226e-06 -6.43594e-05)
(0.00518083 -9.49148e-06 -6.9227e-05)
(0.00531622 -1.01942e-05 -7.44186e-05)
(0.00546177 -1.09294e-05 -7.99361e-05)
(0.00561808 -1.16986e-05 -8.57901e-05)
(0.00578578 -1.24964e-05 -9.20023e-05)
(0.00596552 -1.33031e-05 -9.85918e-05)
(0.0061579 -1.40853e-05 -0.000105562)
(0.00636344 -1.48025e-05 -0.000112891)
(0.00658247 -1.53981e-05 -0.000120516)
(0.00681505 -1.57722e-05 -0.000128332)
(0.00706078 -1.57652e-05 -0.000136177)
(0.00731854 -1.51343e-05 -0.000143792)
(0.00758613 -1.34899e-05 -0.000150753)
(0.00785963 -1.01815e-05 -0.000156351)
(0.0081322 -4.04117e-06 -0.000159372)
(0.00839199 7.14779e-06 -0.000157659)
(0.00861812 2.78843e-05 -0.000147231)
(0.00877262 6.8149e-05 -0.00012015)
(0.0087839 0.000150934 -5.93487e-05)
(0.0085096 0.000329542 7.4852e-05)
(0.00766532 0.00073258 0.00038783)
(0.00562851 0.00167374 0.00119933)
(0.00100453 0.00401915 0.00342158)
(-0.00843453 0.0108309 0.0107671)
(-0.0321105 0.0254456 0.0195293)
(-0.0920924 0.0205039 0.010413)
(-0.122339 -0.0185067 -0.00579092)
(-0.0937233 -0.048293 0.0018822)
(-0.0720396 -0.0450249 0.0114598)
(-0.0722121 -0.0361062 -0.000634863)
(-0.0676451 -0.0258709 -0.00951973)
(-0.0677699 -0.00728102 -0.00948568)
(-0.065127 0.00857442 -0.0129669)
(-0.0562886 0.0165149 -0.0197232)
(-0.0498275 0.0204303 -0.0191942)
(0.00512388 -1.45419e-05 -7.31743e-05)
(0.00524288 -1.56531e-05 -7.87848e-05)
(0.00537101 -1.68247e-05 -8.47899e-05)
(0.00550888 -1.80417e-05 -9.11996e-05)
(0.00565712 -1.92862e-05 -9.80337e-05)
(0.00581638 -2.05414e-05 -0.000105334)
(0.00598733 -2.17768e-05 -0.000113138)
(0.00617064 -2.29371e-05 -0.000121464)
(0.00636692 -2.39356e-05 -0.00013031)
(0.00657674 -2.46462e-05 -0.000139663)
(0.00680048 -2.48824e-05 -0.000149487)
(0.00703827 -2.43516e-05 -0.000159705)
(0.00728987 -2.26071e-05 -0.000170165)
(0.0075544 -1.89754e-05 -0.000180645)
(0.00783008 -1.24062e-05 -0.000190774)
(0.00811371 -1.20289e-06 -0.000199898)
(0.00839993 1.74242e-05 -0.000206964)
(0.00867993 4.82848e-05 -0.000210277)
(0.0089398 9.99937e-05 -0.000206755)
(0.00915814 0.00018839 -0.000191061)
(0.00930192 0.000343969 -0.000153085)
(0.0093213 0.000629408 -7.34073e-05)
(0.0091506 0.00118286 8.72841e-05)
(0.0087156 0.00230752 0.000413309)
(0.00813308 0.00471822 0.00108132)
(0.0075905 0.00997588 0.00246926)
(0.0113051 0.0197834 0.00460029)
(0.0164765 0.0262565 -0.00200047)
(0.0159144 0.0199898 -0.0098638)
(0.011505 0.0139302 -0.00389937)
(0.0026855 0.0149562 0.00412846)
(-0.00273157 0.0143652 0.0069474)
(-0.00990066 0.013295 0.00674763)
(-0.0185742 0.0118888 0.00345716)
(-0.0212675 0.00990665 -0.00118332)
(-0.0181221 0.0109845 -0.00650042)
(-0.00962355 0.0148553 -0.0136292)
(0.00514308 -1.36395e-05 -7.91648e-05)
(0.00526204 -1.46728e-05 -8.52597e-05)
(0.00539016 -1.5748e-05 -9.17789e-05)
(0.00552804 -1.68335e-05 -9.87346e-05)
(0.00567633 -1.78911e-05 -0.000106168)
(0.00583571 -1.88779e-05 -0.000114143)
(0.00600687 -1.97322e-05 -0.000122702)
(0.0061905 -2.03586e-05 -0.000131858)
(0.00638726 -2.06144e-05 -0.000141606)
(0.00659774 -2.02938e-05 -0.000151934)
(0.00682242 -1.90935e-05 -0.000162823)
(0.00706156 -1.65498e-05 -0.000174213)
(0.00731514 -1.19842e-05 -0.000185981)
(0.00758266 -4.39043e-06 -0.000197927)
(0.0078629 7.76798e-06 -0.00020972)
(0.00815357 2.68794e-05 -0.000220887)
(0.00845076 5.67236e-05 -0.000230558)
(0.00874797 0.000103442 -0.000237214)
(0.00903443 0.000177242 -0.000238278)
(0.00929227 0.000295269 -0.000228947)
(0.00949313 0.0004876 -0.000200672)
(0.0095947 0.000808007 -0.000137395)
(0.00954063 0.00135147 -8.10501e-06)
(0.00928019 0.00227753 0.000246156)
(0.008864 0.0038503 0.000731321)
(0.00851966 0.00632497 0.00160269)
(0.0097606 0.0101322 0.00291574)
(0.0139465 0.00996398 0.00332647)
(0.0176571 -0.000697357 0.00271718)
(0.0188799 -0.0119888 0.00314399)
(0.0190676 -0.0131042 0.00374158)
(0.0188449 -0.00935719 0.00383803)
(0.017801 -0.00573687 0.00447764)
(0.0157514 -0.00277795 0.00626203)
(0.0127813 -0.000620325 0.00809966)
(0.00905833 0.00201376 0.00828439)
(0.00697166 0.00547912 0.00523835)
(0.00514487 -9.28101e-06 -8.05482e-05)
(0.00526375 -9.97829e-06 -8.67682e-05)
(0.0053918 -1.06778e-05 -9.34216e-05)
(0.00552966 -1.13332e-05 -0.000100528)
(0.00567797 -1.18903e-05 -0.000108142)
(0.00583744 -1.22832e-05 -0.000116325)
(0.00600878 -1.24188e-05 -0.000125114)
(0.00619273 -1.21627e-05 -0.000134523)
(0.00638999 -1.13244e-05 -0.00014454)
(0.00660123 -9.63292e-06 -0.000155155)
(0.00682705 -6.70043e-06 -0.000166358)
(0.00706791 -1.96612e-06 -0.000178103)
(0.00732404 5.40179e-06 -0.00019031)
(0.00759539 1.66228e-05 -0.000202813)
(0.00788144 3.35121e-05 -0.000215382)
(0.00818105 5.88081e-05 -0.000227599)
(0.00849229 9.67378e-05 -0.000238854)
(0.00881216 0.000153925 -0.000248121)
(0.00913673 0.000240948 -0.000253711)
(0.00946256 0.00037514 -0.000252991)
(0.00978956 0.000584661 -0.000242202)
(0.0101258 0.000915036 -0.000215556)
(0.0104981 0.00143979 -0.000165169)
(0.0109748 0.00227231 -8.03137e-05)
(0.0117351 0.00356389 5.13817e-05)
(0.0130877 0.00542834 0.000202561)
(0.0158258 0.00789336 0.000301766)
(0.0205913 0.00965237 -0.000302721)
(0.0248621 0.00908885 -0.00159878)
(0.0249678 0.00795456 -0.00177788)
(0.0223902 0.00758238 -0.00101074)
(0.0207184 0.00737069 -0.000400584)
(0.0204461 0.00724519 -2.76724e-08)
(0.0209711 0.00735902 0.000481053)
(0.0219817 0.00731951 0.00117379)
(0.0234409 0.00692405 0.00196665)
(0.0258476 0.00601831 0.00240774)
(0.00514465 -3.97147e-06 -8.01199e-05)
(0.00526351 -4.26245e-06 -8.63319e-05)
(0.00539157 -4.50751e-06 -9.29854e-05)
(0.00552948 -4.65002e-06 -0.000100108)
(0.00567792 -4.62333e-06 -0.000107749)
(0.0058376 -4.34306e-06 -0.000115954)
(0.00600927 -3.6942e-06 -0.000124755)
(0.00619372 -2.51985e-06 -0.00013417)
(0.0063917 -5.98153e-07 -0.000144196)
(0.00660399 2.38118e-06 -0.000154829)
(0.0068313 6.85584e-06 -0.000166076)
(0.0070743 1.34463e-05 -0.000177922)
(0.00733355 2.30564e-05 -0.00019027)
(0.00760944 3.699e-05 -0.000203003)
(0.00790216 5.71353e-05 -0.000215931)
(0.00821161 8.62555e-05 -0.00022879)
(0.00853736 0.000128405 -0.000241165)
(0.00887869 0.000189558 -0.00025234)
(0.00923449 0.000278495 -0.000261134)
(0.00960285 0.000407922 -0.000265611)
(0.00998113 0.000595265 -0.000262368)
(0.0103688 0.000864228 -0.000246137)
(0.0107732 0.0012444 -0.000209276)
(0.0112201 0.00176597 -0.000141728)
(0.0117762 0.00244253 -3.14226e-05)
(0.0125643 0.00319674 0.000125951)
(0.0138141 0.00381044 0.000318056)
(0.0156694 0.00338462 0.000444731)
(0.0176729 0.000821299 0.000458872)
(0.0192925 -0.00238032 0.000497898)
(0.0206718 -0.00358727 0.000503848)
(0.0220422 -0.0032066 0.000449925)
(0.0234511 -0.00217823 0.000426925)
(0.0250087 -0.000900479 0.000469093)
(0.0268325 0.000466846 0.000523818)
(0.0289912 0.00183157 0.000519151)
(0.0315883 0.00296368 0.00039293)
(0.00514453 1.05793e-06 -7.94305e-05)
(0.00526342 1.15239e-06 -8.56276e-05)
(0.00539157 1.34016e-06 -9.22737e-05)
(0.00552962 1.68136e-06 -9.9399e-05)
(0.00567827 2.24866e-06 -0.000107044)
(0.00583826 3.13589e-06 -0.000115241)
(0.00601037 4.46757e-06 -0.00012402)
(0.00619542 6.41089e-06 -0.000133402)
(0.00639427 9.19919e-06 -0.000143392)
(0.00660777 1.31537e-05 -0.000153997)
(0.00683678 1.87278e-05 -0.000165237)
(0.00708219 2.65687e-05 -0.000177114)
(0.00734486 3.75781e-05 -0.000189573)
(0.00762561 5.30281e-05 -0.000202513)
(0.00792526 7.47241e-05 -0.000215803)
(0.00824463 0.000105232 -0.000229278)
(0.00858467 0.000148197 -0.000242683)
(0.00894668 0.000208781 -0.000255586)
(0.00933279 0.000294267 -0.000267314)
(0.00974734 0.000414944 -0.00027692)
(0.0102001 0.000585649 -0.000283363)
(0.0107098 0.000826348 -0.000286044)
(0.0113086 0.00116109 -0.000284739)
(0.012049 0.00161465 -0.000280724)
(0.0130131 0.00220266 -0.000279222)
(0.0143078 0.00290593 -0.000296057)
(0.0160423 0.00364289 -0.000361955)
(0.0181897 0.0041825 -0.000541243)
(0.0202463 0.00430789 -0.000854799)
(0.0214675 0.00423417 -0.00109343)
(0.0218717 0.00418985 -0.00114497)
(0.0222136 0.00417909 -0.00109864)
(0.0229694 0.00420493 -0.00105274)
(0.0241896 0.00429689 -0.00101706)
(0.0258875 0.00441431 -0.000990494)
(0.0280875 0.00451863 -0.00100255)
(0.0308744 0.00448839 -0.00107848)
(0.00514473 5.62762e-06 -7.91625e-05)
(0.00526372 6.08494e-06 -8.53923e-05)
(0.00539199 6.67707e-06 -9.20783e-05)
(0.00553024 7.46197e-06 -9.92434e-05)
(0.00567916 8.51215e-06 -0.000106923)
(0.00583952 9.92226e-06 -0.000115148)
(0.00601213 1.18157e-05 -0.000123953)
(0.00619788 1.436e-05 -0.000133362)
(0.00639767 1.77839e-05 -0.000143392)
(0.00661246 2.24035e-05 -0.000154063)
(0.00684326 2.86587e-05 -0.000165398)
(0.00709114 3.71582e-05 -0.000177403)
(0.00735724 4.87418e-05 -0.00019004)
(0.00764276 6.45719e-05 -0.000203255)
(0.00794905 8.62625e-05 -0.000216985)
(0.00827767 0.000116045 -0.000231159)
(0.00863057 0.000156963 -0.000245637)
(0.00901028 0.000213111 -0.000260185)
(0.00942036 0.00028986 -0.000274449)
(0.00986572 0.000393929 -0.000287915)
(0.0103526 0.000532821 -0.000299832)
(0.0108888 0.000712858 -0.000308806)
(0.0114867 0.000937416 -0.00031306)
(0.0121653 0.00120152 -0.000310984)
(0.0129526 0.00148135 -0.000301759)
(0.0138836 0.00171639 -0.000286974)
(0.0149902 0.00179395 -0.000272363)
(0.0162693 0.00153274 -0.000269441)
(0.0176445 0.000794399 -0.000283336)
(0.0190406 -0.000165248 -0.00030471)
(0.0204672 -0.000795084 -0.000339855)
(0.0219659 -0.000891255 -0.000396445)
(0.0235668 -0.000624135 -0.000469099)
(0.0253045 -0.000143299 -0.000555102)
(0.0272351 0.000445905 -0.000657312)
(0.0293683 0.00104769 -0.000790775)
(0.0318039 0.00152956 -0.000934484)
(0.00514527 1.00388e-05 -7.93342e-05)
(0.00526439 1.08714e-05 -8.56432e-05)
(0.00539284 1.18752e-05 -9.24185e-05)
(0.00553132 1.30977e-05 -9.96634e-05)
(0.00568055 1.46075e-05 -0.000107415)
(0.00584131 1.64944e-05 -0.000115714)
(0.00601446 1.88704e-05 -0.000124594)
(0.00620092 2.18881e-05 -0.000134086)
(0.00640166 2.57585e-05 -0.000144222)
(0.00661773 3.07723e-05 -0.00015503)
(0.00685027 3.73246e-05 -0.000166529)
(0.00710052 4.59535e-05 -0.00017872)
(0.00736983 5.73945e-05 -0.000191586)
(0.00765973 7.26487e-05 -0.00020513)
(0.00797201 9.30811e-05 -0.000219364)
(0.00830878 0.000120519 -0.000234287)
(0.00867268 0.00015737 -0.000249834)
(0.00906709 0.000206742 -0.000265901)
(0.00949654 0.00027251 -0.000282351)
(0.00996729 0.000359318 -0.00029901)
(0.0104887 0.000472533 -0.000315782)
(0.0110759 0.000618526 -0.000332971)
(0.0117504 0.000803613 -0.000351779)
(0.0125405 0.00103058 -0.000374347)
(0.0134785 0.0012953 -0.000404487)
(0.0145932 0.00158183 -0.000448607)
(0.0158904 0.00185885 -0.000515905)
(0.0173256 0.00208202 -0.000614737)
(0.0187757 0.00222241 -0.000743855)
(0.0200844 0.00230882 -0.000878674)
(0.0212321 0.00238255 -0.000987555)
(0.022363 0.00245942 -0.00107114)
(0.0236398 0.00254364 -0.00114076)
(0.025156 0.00264064 -0.00120803)
(0.0269658 0.00273754 -0.00127802)
(0.029066 0.00282196 -0.00136374)
(0.0315181 0.00283016 -0.00145882)
(0.00514586 1.4141e-05 -7.93159e-05)
(0.00526517 1.53537e-05 -8.56797e-05)
(0.00539384 1.67695e-05 -9.25154e-05)
(0.00553258 1.84137e-05 -9.9808e-05)
(0.00568215 2.03471e-05 -0.0001076)
(0.00584334 2.26486e-05 -0.000115939)
(0.00601704 2.54117e-05 -0.000124855)
(0.00620419 2.87671e-05 -0.000134382)
(0.00640584 3.2899e-05 -0.000144568)
(0.00662311 3.8059e-05 -0.000155452)
(0.00685725 4.45739e-05 -0.000167057)
(0.00710963 5.28816e-05 -0.00017938)
(0.00738179 6.35798e-05 -0.000192427)
(0.00767551 7.74807e-05 -0.000206242)
(0.00799289 9.56703e-05 -0.000220886)
(0.00833644 0.00011955 -0.000236404)
(0.00870924 0.000150912 -0.000252785)
(0.00911518 0.00019197 -0.000270023)
(0.00955917 0.000245342 -0.000288124)
(0.0100475 0.000313903 -0.000307121)
(0.0105879 0.000400307 -0.000327074)
(0.0111893 0.000505635 -0.000348058)
(0.0118607 0.000627013 -0.000370146)
(0.0126118 0.000756231 -0.000393081)
(0.0134539 0.000876342 -0.00041713)
(0.0143971 0.000958342 -0.00044325)
(0.0154468 0.000962325 -0.000472979)
(0.0165997 0.000849209 -0.000508108)
(0.0178435 0.00060806 -0.000549294)
(0.0191698 0.0003021 -0.000596159)
(0.0205843 6.13816e-05 -0.000649954)
(0.0221014 -3.05798e-05 -0.000712755)
(0.0237386 3.25356e-05 -0.000784843)
(0.0255076 0.000211014 -0.000866724)
(0.0274447 0.000449647 -0.000954904)
(0.0295121 0.000704518 -0.00106355)
(0.0318464 0.000871249 -0.00114987)
(0.00514437 1.69786e-05 -7.77405e-05)
(0.0052639 1.84698e-05 -8.39823e-05)
(0.00539282 2.01775e-05 -9.06854e-05)
(0.00553186 2.21001e-05 -9.78294e-05)
(0.00568178 2.42875e-05 -0.000105459)
(0.0058434 2.68025e-05 -0.000113625)
(0.00601762 2.97151e-05 -0.000122349)
(0.00620542 3.31247e-05 -0.000131666)
(0.0064079 3.71825e-05 -0.000141635)
(0.00662623 4.20936e-05 -0.000152306)