/*--------------------------------*- C++ -*----------------------------------*\
| =========                 |                                                 |
| \\      /  F ield         | OpenFOAM: The Open Source CFD Toolbox           |
|  \\    /   O peration     | Version:  2.3.1                                 |
|   \\  /    A nd           | Web:      www.OpenFOAM.org                      |
|    \\/     M anipulation  |                                                 |
\*---------------------------------------------------------------------------*/
FoamFile
{
    version     2.0;
    format      ascii;
    class       volScalarField;
    location    "15";
    object      epsilon;
}
// * * * * * * * * * * * * * * * * * * * * * * * * * * * * * * * * * * * * * //

dimensions      [0 2 -3 0 0 0 0];

internalField   nonuniform List<scalar> 
38262
(
6.01317e-07
5.92344e-07
5.84431e-07
5.77414e-07
5.71166e-07
5.6558e-07
5.60568e-07
5.56053e-07
5.51975e-07
5.48282e-07
5.44931e-07
5.41885e-07
5.39117e-07
5.36601e-07
5.34314e-07
5.32232e-07
5.30336e-07
5.28608e-07
5.27035e-07
5.25604e-07
5.24305e-07
5.23133e-07
5.22082e-07
5.21144e-07
5.20309e-07
5.19567e-07
5.18907e-07
5.18319e-07
5.17797e-07
5.17335e-07
5.16933e-07
5.1659e-07
5.16308e-07
5.16087e-07
5.15934e-07
5.15845e-07
5.15817e-07
5.15827e-07
9.79838e-07
9.69058e-07
9.59515e-07
9.51031e-07
9.43465e-07
9.36693e-07
9.30608e-07
9.25121e-07
9.20161e-07
9.15665e-07
9.11586e-07
9.07888e-07
9.04541e-07
9.01512e-07
8.98763e-07
8.9626e-07
8.93983e-07
8.91916e-07
8.90045e-07
8.88354e-07
8.86838e-07
8.85494e-07
8.84309e-07
8.83266e-07
8.82342e-07
8.81519e-07
8.8078e-07
8.80114e-07
8.79521e-07
8.79008e-07
8.78584e-07
8.78254e-07
8.7802e-07
8.77885e-07
8.77845e-07
8.77866e-07
8.77959e-07
8.78103e-07
1.17127e-06
1.16104e-06
1.15196e-06
1.14386e-06
1.13664e-06
1.13016e-06
1.12433e-06
1.11908e-06
1.11433e-06
1.11003e-06
1.10612e-06
1.10259e-06
1.09941e-06
1.09654e-06
1.09394e-06
1.09157e-06
1.08941e-06
1.08745e-06
1.08569e-06
1.0841e-06
1.08269e-06
1.08144e-06
1.08035e-06
1.07939e-06
1.07854e-06
1.0778e-06
1.07713e-06
1.07654e-06
1.07602e-06
1.07558e-06
1.07522e-06
1.07495e-06
1.07477e-06
1.0747e-06
1.0747e-06
1.07478e-06
1.07493e-06
1.07511e-06
1.26444e-06
1.25468e-06
1.24599e-06
1.23823e-06
1.23129e-06
1.22506e-06
1.21947e-06
1.21442e-06
1.20985e-06
1.20571e-06
1.20197e-06
1.1986e-06
1.19558e-06
1.19286e-06
1.19039e-06
1.18812e-06
1.18606e-06
1.18419e-06
1.18251e-06
1.18099e-06
1.17965e-06
1.17846e-06
1.17743e-06
1.17651e-06
1.17572e-06
1.17504e-06
1.17444e-06
1.17392e-06
1.17347e-06
1.17308e-06
1.17277e-06
1.17253e-06
1.17237e-06
1.17231e-06
1.17233e-06
1.17245e-06
1.17263e-06
1.17286e-06
1.30471e-06
1.29518e-06
1.28669e-06
1.27911e-06
1.27233e-06
1.26624e-06
1.26076e-06
1.25582e-06
1.25134e-06
1.2473e-06
1.24366e-06
1.24041e-06
1.23748e-06
1.23484e-06
1.23244e-06
1.23024e-06
1.22823e-06
1.22641e-06
1.22475e-06
1.22326e-06
1.22194e-06
1.22078e-06
1.21976e-06
1.21885e-06
1.21807e-06
1.21742e-06
1.21687e-06
1.2164e-06
1.216e-06
1.21566e-06
1.21536e-06
1.21511e-06
1.21493e-06
1.21486e-06
1.21488e-06
1.215e-06
1.21521e-06
1.21547e-06
1.30937e-06
1.30095e-06
1.29345e-06
1.28675e-06
1.28075e-06
1.27533e-06
1.27043e-06
1.266e-06
1.26202e-06
1.25844e-06
1.25525e-06
1.25237e-06
1.24976e-06
1.24739e-06
1.24522e-06
1.24323e-06
1.24142e-06
1.23977e-06
1.23828e-06
1.23696e-06
1.2358e-06
1.23476e-06
1.23385e-06
1.23306e-06
1.23242e-06
1.23189e-06
1.23146e-06
1.23109e-06
1.23076e-06
1.23045e-06
1.23018e-06
1.22997e-06
1.22987e-06
1.22988e-06
1.22999e-06
1.23021e-06
1.2305e-06
1.30923e-06
1.30082e-06
1.29334e-06
1.28668e-06
1.28071e-06
1.27533e-06
1.27046e-06
1.26605e-06
1.2621e-06
1.25855e-06
1.25538e-06
1.25252e-06
1.24991e-06
1.24753e-06
1.24536e-06
1.24337e-06
1.24156e-06
1.23991e-06
1.23841e-06
1.23708e-06
1.2359e-06
1.23485e-06
1.23392e-06
1.23313e-06
1.23248e-06
1.23195e-06
1.23152e-06
1.23115e-06
1.2308e-06
1.23047e-06
1.23017e-06
1.22993e-06
1.2298e-06
1.22979e-06
1.22989e-06
1.23012e-06
1.23043e-06
1.29482e-06
1.28633e-06
1.27881e-06
1.27213e-06
1.26615e-06
1.26076e-06
1.25588e-06
1.25147e-06
1.24751e-06
1.24396e-06
1.24077e-06
1.23789e-06
1.23526e-06
1.23284e-06
1.23063e-06
1.22861e-06
1.22679e-06
1.22513e-06
1.22363e-06
1.22228e-06
1.22107e-06
1.22e-06
1.21906e-06
1.21826e-06
1.21759e-06
1.21704e-06
1.21657e-06
1.21617e-06
1.21579e-06
1.21542e-06
1.21508e-06
1.21482e-06
1.21465e-06
1.21463e-06
1.21471e-06
1.21493e-06
1.21525e-06
1.21565e-06
1.25419e-06
1.24551e-06
1.23782e-06
1.23101e-06
1.22492e-06
1.21944e-06
1.21448e-06
1.21e-06
1.20596e-06
1.20234e-06
1.19909e-06
1.19614e-06
1.19344e-06
1.19096e-06
1.18867e-06
1.1866e-06
1.18473e-06
1.18305e-06
1.18152e-06
1.18014e-06
1.1789e-06
1.17779e-06
1.17683e-06
1.176e-06
1.1753e-06
1.17469e-06
1.17417e-06
1.17371e-06
1.17327e-06
1.17286e-06
1.17249e-06
1.17218e-06
1.17199e-06
1.17194e-06
1.172e-06
1.1722e-06
1.1725e-06
1.17291e-06
1.16052e-06
1.15143e-06
1.1434e-06
1.13629e-06
1.12994e-06
1.12422e-06
1.11906e-06
1.11439e-06
1.11019e-06
1.10642e-06
1.10302e-06
1.09993e-06
1.09711e-06
1.09451e-06
1.09213e-06
1.08996e-06
1.08801e-06
1.08625e-06
1.08466e-06
1.08322e-06
1.08192e-06
1.08076e-06
1.07975e-06
1.07887e-06
1.0781e-06
1.07744e-06
1.07684e-06
1.07631e-06
1.07581e-06
1.07534e-06
1.07492e-06
1.07457e-06
1.07433e-06
1.07424e-06
1.07426e-06
1.0744e-06
1.07466e-06
1.07505e-06
9.68574e-07
9.59002e-07
9.50538e-07
9.43034e-07
9.36339e-07
9.30321e-07
9.24888e-07
9.19984e-07
9.15568e-07
9.11595e-07
9.08011e-07
9.0476e-07
9.0179e-07
8.99067e-07
8.96572e-07
8.94302e-07
8.92254e-07
8.90408e-07
8.88741e-07
8.8723e-07
8.85865e-07
8.84644e-07
8.83568e-07
8.82632e-07
8.81818e-07
8.811e-07
8.80452e-07
8.79857e-07
8.79302e-07
8.78786e-07
8.78315e-07
8.77913e-07
8.77612e-07
8.77436e-07
8.77397e-07
8.77449e-07
8.77623e-07
8.77932e-07
5.92076e-07
5.84121e-07
5.7708e-07
5.70828e-07
5.65256e-07
5.60266e-07
5.55778e-07
5.51731e-07
5.48077e-07
5.44778e-07
5.41796e-07
5.39095e-07
5.36642e-07
5.34408e-07
5.32367e-07
5.30503e-07
5.28802e-07
5.27253e-07
5.25843e-07
5.2456e-07
5.23394e-07
5.22337e-07
5.21387e-07
5.20538e-07
5.19786e-07
5.1912e-07
5.18527e-07
5.17997e-07
5.17519e-07
5.17085e-07
5.16691e-07
5.1634e-07
5.1604e-07
5.15803e-07
5.15632e-07
5.15557e-07
5.15559e-07
5.15637e-07
5.55186e-07
5.5214e-07
5.49415e-07
5.46968e-07
5.44764e-07
5.42772e-07
5.40964e-07
5.39318e-07
5.37818e-07
5.36449e-07
5.35198e-07
5.34056e-07
5.33018e-07
5.32076e-07
5.31221e-07
5.30444e-07
5.29738e-07
5.29097e-07
5.28516e-07
5.2799e-07
5.27518e-07
5.271e-07
5.26733e-07
5.26412e-07
5.26129e-07
5.25878e-07
5.25654e-07
5.25455e-07
5.25282e-07
5.25135e-07
5.25017e-07
5.24927e-07
5.24867e-07
5.24837e-07
5.2483e-07
5.24838e-07
5.24862e-07
5.24899e-07
5.67866e-07
5.65643e-07
5.63713e-07
5.62025e-07
5.60541e-07
5.59231e-07
5.58068e-07
5.57031e-07
5.56102e-07
5.55268e-07
5.54516e-07
5.53838e-07
5.53227e-07
5.52677e-07
5.52181e-07
5.5173e-07
5.51321e-07
5.5095e-07
5.50615e-07
5.50312e-07
5.50041e-07
5.498e-07
5.49589e-07
5.49403e-07
5.49239e-07
5.49093e-07
5.48961e-07
5.48842e-07
5.48735e-07
5.48642e-07
5.48564e-07
5.48502e-07
5.48458e-07
5.48433e-07
5.48424e-07
5.48429e-07
5.48447e-07
5.4848e-07
6.26563e-07
6.23858e-07
6.2152e-07
6.19483e-07
6.17698e-07
6.16127e-07
6.14737e-07
6.13503e-07
6.12402e-07
6.11416e-07
6.1053e-07
6.09732e-07
6.09015e-07
6.08369e-07
6.07787e-07
6.0726e-07
6.06781e-07
6.06346e-07
6.05951e-07
6.05594e-07
6.05271e-07
6.04982e-07
6.04724e-07
6.04495e-07
6.04291e-07
6.04111e-07
6.0395e-07
6.03807e-07
6.03679e-07
6.03566e-07
6.03469e-07
6.03387e-07
6.03321e-07
6.03274e-07
6.03242e-07
6.03226e-07
6.03231e-07
6.03249e-07
6.54732e-07
6.51779e-07
6.49232e-07
6.47015e-07
6.45075e-07
6.43368e-07
6.41861e-07
6.40523e-07
6.39331e-07
6.38265e-07
6.37306e-07
6.36445e-07
6.35671e-07
6.34977e-07
6.34352e-07
6.33786e-07
6.33272e-07
6.32805e-07
6.32381e-07
6.31996e-07
6.31648e-07
6.31335e-07
6.31054e-07
6.30803e-07
6.30579e-07
6.30379e-07
6.30204e-07
6.30049e-07
6.29912e-07
6.29792e-07
6.29688e-07
6.29598e-07
6.29523e-07
6.29464e-07
6.2942e-07
6.29393e-07
6.29388e-07
6.29401e-07
6.65845e-07
6.62804e-07
6.6018e-07
6.57899e-07
6.55903e-07
6.54149e-07
6.526e-07
6.51226e-07
6.50001e-07
6.48904e-07
6.47919e-07
6.47036e-07
6.46245e-07
6.45534e-07
6.44895e-07
6.44316e-07
6.43791e-07
6.43315e-07
6.42883e-07
6.42489e-07
6.42133e-07
6.41812e-07
6.41524e-07
6.41265e-07
6.41032e-07
6.40824e-07
6.40642e-07
6.40483e-07
6.40345e-07
6.40225e-07
6.4012e-07
6.40029e-07
6.3995e-07
6.39886e-07
6.39836e-07
6.39804e-07
6.39793e-07
6.39803e-07
6.66367e-07
6.63719e-07
6.61416e-07
6.59404e-07
6.57638e-07
6.56079e-07
6.54694e-07
6.53458e-07
6.52352e-07
6.51361e-07
6.50473e-07
6.49679e-07
6.48965e-07
6.48322e-07
6.4774e-07
6.47213e-07
6.46736e-07
6.46303e-07
6.45908e-07
6.4555e-07
6.45228e-07
6.44938e-07
6.44677e-07
6.4444e-07
6.44229e-07
6.44044e-07
6.43884e-07
6.43747e-07
6.43629e-07
6.43526e-07
6.43434e-07
6.43353e-07
6.43285e-07
6.43233e-07
6.43196e-07
6.43181e-07
6.4319e-07
6.66365e-07
6.63712e-07
6.61405e-07
6.59392e-07
6.57626e-07
6.56068e-07
6.54683e-07
6.53447e-07
6.5234e-07
6.51351e-07
6.50467e-07
6.49674e-07
6.48963e-07
6.4832e-07
6.47739e-07
6.47212e-07
6.46736e-07
6.46304e-07
6.45911e-07
6.45554e-07
6.45233e-07
6.44943e-07
6.4468e-07
6.44443e-07
6.44232e-07
6.44048e-07
6.43889e-07
6.43753e-07
6.43636e-07
6.43533e-07
6.4344e-07
6.43357e-07
6.43287e-07
6.43232e-07
6.43193e-07
6.43174e-07
6.43182e-07
6.62796e-07
6.60159e-07
6.57867e-07
6.55867e-07
6.54114e-07
6.52568e-07
6.51194e-07
6.49967e-07
6.4887e-07
6.47889e-07
6.47013e-07
6.46229e-07
6.45524e-07
6.44887e-07
6.4431e-07
6.43786e-07
6.43312e-07
6.42884e-07
6.42495e-07
6.42143e-07
6.41824e-07
6.41535e-07
6.41275e-07
6.41042e-07
6.40835e-07
6.40653e-07
6.40496e-07
6.40361e-07
6.40244e-07
6.40141e-07
6.40047e-07
6.39962e-07
6.3989e-07
6.39834e-07
6.39793e-07
6.39772e-07
6.39778e-07
6.39814e-07
6.51759e-07
6.49194e-07
6.46965e-07
6.45019e-07
6.43314e-07
6.41808e-07
6.40471e-07
6.39277e-07
6.3821e-07
6.37256e-07
6.36404e-07
6.35641e-07
6.34955e-07
6.34335e-07
6.33771e-07
6.33258e-07
6.32795e-07
6.32378e-07
6.32e-07
6.31659e-07
6.31349e-07
6.31069e-07
6.30818e-07
6.30594e-07
6.30397e-07
6.30224e-07
6.30073e-07
6.29942e-07
6.29826e-07
6.29722e-07
6.29627e-07
6.29542e-07
6.29469e-07
6.29414e-07
6.29373e-07
6.29352e-07
6.29358e-07
6.29396e-07
6.2382e-07
6.21465e-07
6.19417e-07
6.17629e-07
6.16059e-07
6.14672e-07
6.13438e-07
6.12335e-07
6.1135e-07
6.10469e-07
6.09682e-07
6.08977e-07
6.08341e-07
6.07763e-07
6.07238e-07
6.06761e-07
6.06331e-07
6.05944e-07
6.05595e-07
6.05281e-07
6.04996e-07
6.0474e-07
6.04513e-07
6.04312e-07
6.04137e-07
6.03983e-07
6.03848e-07
6.03727e-07
6.03617e-07
6.03516e-07
6.03424e-07
6.03342e-07
6.03272e-07
6.03222e-07
6.03189e-07
6.03176e-07
6.03187e-07
6.03233e-07
5.65575e-07
5.63634e-07
5.61944e-07
5.60466e-07
5.59166e-07
5.58011e-07
5.56978e-07
5.56052e-07
5.55225e-07
5.54486e-07
5.53825e-07
5.53229e-07
5.52687e-07
5.52193e-07
5.51742e-07
5.51333e-07
5.50966e-07
5.50637e-07
5.50341e-07
5.50075e-07
5.49836e-07
5.49622e-07
5.49435e-07
5.49273e-07
5.49134e-07
5.49012e-07
5.48902e-07
5.488e-07
5.48704e-07
5.48614e-07
5.4853e-07
5.48456e-07
5.48399e-07
5.48364e-07
5.48354e-07
5.48362e-07
5.4839e-07
5.48457e-07
5.51945e-07
5.49221e-07
5.46794e-07
5.44625e-07
5.42674e-07
5.40904e-07
5.39294e-07
5.37833e-07
5.36509e-07
5.35312e-07
5.34224e-07
5.33232e-07
5.32323e-07
5.31487e-07
5.30718e-07
5.30015e-07
5.29374e-07
5.28791e-07
5.2826e-07
5.27774e-07
5.27332e-07
5.26934e-07
5.26582e-07
5.26274e-07
5.26002e-07
5.2576e-07
5.25539e-07
5.25337e-07
5.25153e-07
5.24986e-07
5.24841e-07
5.24724e-07
5.24646e-07
5.24616e-07
5.24627e-07
5.24672e-07
5.24744e-07
5.24838e-07
6.98275e-07
6.94673e-07
6.91457e-07
6.88573e-07
6.8598e-07
6.83639e-07
6.81521e-07
6.79597e-07
6.77848e-07
6.76255e-07
6.74802e-07
6.73478e-07
6.72275e-07
6.71184e-07
6.70193e-07
6.69292e-07
6.68471e-07
6.67726e-07
6.6705e-07
6.66439e-07
6.6589e-07
6.65401e-07
6.64971e-07
6.64593e-07
6.6426e-07
6.63962e-07
6.63696e-07
6.63458e-07
6.6325e-07
6.63072e-07
6.62926e-07
6.62812e-07
6.62733e-07
6.62687e-07
6.62673e-07
6.62681e-07
6.62707e-07
6.62753e-07
5.36426e-07
5.35369e-07
5.34466e-07
5.33687e-07
5.33011e-07
5.32419e-07
5.31898e-07
5.31437e-07
5.31027e-07
5.30659e-07
5.3033e-07
5.30034e-07
5.29768e-07
5.29529e-07
5.29314e-07
5.2912e-07
5.28945e-07
5.28787e-07
5.28644e-07
5.28515e-07
5.28399e-07
5.28296e-07
5.28204e-07
5.28124e-07
5.28053e-07
5.2799e-07
5.27934e-07
5.27885e-07
5.27841e-07
5.27803e-07
5.27771e-07
5.27745e-07
5.27725e-07
5.27712e-07
5.27705e-07
5.27704e-07
5.27709e-07
5.27719e-07
5.39863e-07
5.38492e-07
5.37333e-07
5.36346e-07
5.35497e-07
5.34762e-07
5.34122e-07
5.33561e-07
5.33067e-07
5.32629e-07
5.32239e-07
5.31891e-07
5.31579e-07
5.31299e-07
5.31049e-07
5.30823e-07
5.30619e-07
5.30434e-07
5.30266e-07
5.30113e-07
5.29974e-07
5.29849e-07
5.29736e-07
5.29634e-07
5.29543e-07
5.29461e-07
5.29389e-07
5.29324e-07
5.29266e-07
5.29213e-07
5.29166e-07
5.29125e-07
5.29089e-07
5.29059e-07
5.29034e-07
5.29015e-07
5.29004e-07
5.29001e-07
5.44094e-07
5.42467e-07
5.41095e-07
5.39926e-07
5.38923e-07
5.38055e-07
5.37299e-07
5.36638e-07
5.36056e-07
5.3554e-07
5.35081e-07
5.34671e-07
5.34304e-07
5.33976e-07
5.33682e-07
5.33417e-07
5.33178e-07
5.32961e-07
5.32764e-07
5.32584e-07
5.3242e-07
5.32271e-07
5.32136e-07
5.32014e-07
5.31903e-07
5.31803e-07
5.31713e-07
5.31634e-07
5.31562e-07
5.31498e-07
5.31441e-07
5.3139e-07
5.31344e-07
5.31302e-07
5.31266e-07
5.31236e-07
5.31214e-07
5.31201e-07
5.45209e-07
5.43462e-07
5.41988e-07
5.40733e-07
5.39654e-07
5.38722e-07
5.3791e-07
5.372e-07
5.36575e-07
5.3602e-07
5.35526e-07
5.35085e-07
5.34691e-07
5.34339e-07
5.34024e-07
5.3374e-07
5.33485e-07
5.33253e-07
5.33042e-07
5.32851e-07
5.32675e-07
5.32515e-07
5.3237e-07
5.32238e-07
5.32118e-07
5.32008e-07
5.3191e-07
5.31822e-07
5.31744e-07
5.31676e-07
5.31615e-07
5.3156e-07
5.31509e-07
5.31464e-07
5.31422e-07
5.31386e-07
5.31358e-07
5.3134e-07
5.43515e-07
5.42002e-07
5.40712e-07
5.39605e-07
5.38648e-07
5.37816e-07
5.37087e-07
5.36444e-07
5.35874e-07
5.35366e-07
5.34913e-07
5.34509e-07
5.34149e-07
5.33826e-07
5.33535e-07
5.33274e-07
5.33038e-07
5.32823e-07
5.32628e-07
5.32449e-07
5.32286e-07
5.32138e-07
5.32003e-07
5.31878e-07
5.31765e-07
5.31662e-07
5.31572e-07
5.31492e-07
5.31423e-07
5.31361e-07
5.31306e-07
5.31255e-07
5.31208e-07
5.31164e-07
5.31126e-07
5.31094e-07
5.31072e-07
5.4352e-07
5.42004e-07
5.40711e-07
5.39601e-07
5.38643e-07
5.37809e-07
5.37079e-07
5.36434e-07
5.35863e-07
5.35355e-07
5.34902e-07
5.34499e-07
5.34139e-07
5.33817e-07
5.33527e-07
5.33266e-07
5.3303e-07
5.32817e-07
5.32622e-07
5.32445e-07
5.32283e-07
5.32135e-07
5.32001e-07
5.31877e-07
5.31763e-07
5.31661e-07
5.31571e-07
5.31492e-07
5.31424e-07
5.31364e-07
5.3131e-07
5.31259e-07
5.31212e-07
5.31169e-07
5.31129e-07
5.31095e-07
5.31072e-07
5.43473e-07
5.41992e-07
5.40729e-07
5.39644e-07
5.38706e-07
5.37892e-07
5.37178e-07
5.36548e-07
5.35991e-07
5.35495e-07
5.35054e-07
5.34661e-07
5.34311e-07
5.33998e-07
5.33716e-07
5.33462e-07
5.33232e-07
5.33024e-07
5.32836e-07
5.32664e-07
5.32507e-07
5.32364e-07
5.32233e-07
5.32113e-07
5.32005e-07
5.31907e-07
5.31821e-07
5.31746e-07
5.3168e-07
5.31623e-07
5.31571e-07
5.31523e-07
5.31477e-07
5.31435e-07
5.31396e-07
5.31361e-07
5.31338e-07
5.31326e-07
5.42478e-07
5.41097e-07
5.39918e-07
5.38906e-07
5.38032e-07
5.37272e-07
5.36606e-07
5.36019e-07
5.35499e-07
5.35038e-07
5.34628e-07
5.34263e-07
5.33938e-07
5.33646e-07
5.33384e-07
5.33147e-07
5.32932e-07
5.32739e-07
5.32564e-07
5.32405e-07
5.3226e-07
5.32127e-07
5.32007e-07
5.31898e-07
5.318e-07
5.31712e-07
5.31635e-07
5.31567e-07
5.31508e-07
5.31455e-07
5.31407e-07
5.31363e-07
5.31321e-07
5.31282e-07
5.31247e-07
5.31217e-07
5.31196e-07
5.31186e-07
5.38491e-07
5.37326e-07
5.36331e-07
5.35477e-07
5.34739e-07
5.34096e-07
5.33532e-07
5.33034e-07
5.32594e-07
5.32203e-07
5.31856e-07
5.31547e-07
5.3127e-07
5.31022e-07
5.30798e-07
5.30596e-07
5.30413e-07
5.30248e-07
5.30099e-07
5.29965e-07
5.29843e-07
5.29732e-07
5.29632e-07
5.29543e-07
5.29464e-07
5.29393e-07
5.29331e-07
5.29276e-07
5.29227e-07
5.29183e-07
5.29143e-07
5.29106e-07
5.29072e-07
5.29043e-07
5.29018e-07
5.28998e-07
5.28987e-07
5.28989e-07
5.35343e-07
5.34437e-07
5.3366e-07
5.32988e-07
5.32403e-07
5.31888e-07
5.31431e-07
5.31025e-07
5.30663e-07
5.30341e-07
5.30053e-07
5.29795e-07
5.29561e-07
5.29349e-07
5.29156e-07
5.28981e-07
5.28823e-07
5.28681e-07
5.28552e-07
5.28435e-07
5.28329e-07
5.28233e-07
5.28148e-07
5.28072e-07
5.28007e-07
5.27949e-07
5.27898e-07
5.27853e-07
5.27812e-07
5.27775e-07
5.27742e-07
5.27714e-07
5.27692e-07
5.27679e-07
5.27674e-07
5.27677e-07
5.27689e-07
5.27714e-07
6.94474e-07
6.91254e-07
6.88387e-07
6.85827e-07
6.83526e-07
6.81443e-07
6.79552e-07
6.77837e-07
6.76285e-07
6.74881e-07
6.73609e-07
6.72449e-07
6.71387e-07
6.70412e-07
6.69518e-07
6.68702e-07
6.6796e-07
6.67287e-07
6.66674e-07
6.66116e-07
6.65609e-07
6.65155e-07
6.64753e-07
6.64402e-07
6.64093e-07
6.63817e-07
6.63567e-07
6.63337e-07
6.63126e-07
6.62932e-07
6.62761e-07
6.62619e-07
6.62517e-07
6.62464e-07
6.62466e-07
6.62499e-07
6.62577e-07
6.62688e-07
7.89177e-07
7.85119e-07
7.81501e-07
7.78261e-07
7.75351e-07
7.72728e-07
7.70358e-07
7.68211e-07
7.6626e-07
7.64486e-07
7.62872e-07
7.61404e-07
7.6007e-07
7.58862e-07
7.57766e-07
7.56769e-07
7.55861e-07
7.55036e-07
7.54288e-07
7.53612e-07
7.53003e-07
7.52462e-07
7.51984e-07
7.51564e-07
7.51191e-07
7.50858e-07
7.50559e-07
7.50293e-07
7.50059e-07
7.49857e-07
7.4969e-07
7.49559e-07
7.49465e-07
7.49407e-07
7.49385e-07
7.4939e-07
7.49413e-07
7.49459e-07
5.39834e-07
5.3888e-07
5.38075e-07
5.37387e-07
5.36796e-07
5.36283e-07
5.35834e-07
5.35439e-07
5.3509e-07
5.34779e-07
5.34502e-07
5.34253e-07
5.3403e-07
5.3383e-07
5.33651e-07
5.3349e-07
5.33345e-07
5.33214e-07
5.33095e-07
5.32988e-07
5.3289e-07
5.32802e-07
5.32722e-07
5.3265e-07
5.32586e-07
5.32532e-07
5.32484e-07
5.32443e-07
5.32406e-07
5.32375e-07
5.32348e-07
5.32324e-07
5.32303e-07
5.32286e-07
5.32273e-07
5.32265e-07
5.32263e-07
5.32265e-07
5.10555e-07
5.09429e-07
5.08495e-07
5.07711e-07
5.07049e-07
5.06483e-07
5.05997e-07
5.05577e-07
5.0521e-07
5.04889e-07
5.04606e-07
5.04354e-07
5.04131e-07
5.03931e-07
5.03752e-07
5.03593e-07
5.03449e-07
5.03319e-07
5.03201e-07
5.03093e-07
5.02995e-07
5.02905e-07
5.02822e-07
5.02747e-07
5.0268e-07
5.02619e-07
5.02565e-07
5.02516e-07
5.02473e-07
5.02433e-07
5.02397e-07
5.02363e-07
5.02332e-07
5.02304e-07
5.02278e-07
5.02255e-07
5.02238e-07
5.02225e-07
5.00201e-07
4.98852e-07
4.97732e-07
4.96794e-07
4.96e-07
4.95323e-07
4.94742e-07
4.94239e-07
4.93801e-07
4.93417e-07
4.93079e-07
4.92778e-07
4.9251e-07
4.92272e-07
4.92059e-07
4.91869e-07
4.91697e-07
4.91542e-07
4.91401e-07
4.91273e-07
4.91155e-07
4.91046e-07
4.90947e-07
4.90856e-07
4.90773e-07
4.90698e-07
4.9063e-07
4.90568e-07
4.90513e-07
4.90462e-07
4.90416e-07
4.90374e-07
4.90334e-07
4.90296e-07
4.90261e-07
4.90228e-07
4.90201e-07
4.90178e-07
4.95005e-07
4.93534e-07
4.92312e-07
4.91286e-07
4.90417e-07
4.89676e-07
4.89039e-07
4.88488e-07
4.88008e-07
4.87586e-07
4.87213e-07
4.86882e-07
4.86588e-07
4.86326e-07
4.86092e-07
4.85883e-07
4.85695e-07
4.85526e-07
4.85372e-07
4.85231e-07
4.85102e-07
4.84984e-07
4.84876e-07
4.84776e-07
4.84684e-07
4.846e-07
4.84523e-07
4.84454e-07
4.84391e-07
4.84335e-07
4.84285e-07
4.84238e-07
4.84194e-07
4.84152e-07
4.84112e-07
4.84075e-07
4.84041e-07
4.84013e-07
4.9127e-07
4.90005e-07
4.88941e-07
4.88041e-07
4.87272e-07
4.86611e-07
4.86038e-07
4.85539e-07
4.851e-07
4.84712e-07
4.84368e-07
4.84062e-07
4.8379e-07
4.83548e-07
4.83332e-07
4.83137e-07
4.82962e-07
4.82803e-07
4.82659e-07
4.82526e-07
4.82404e-07
4.82292e-07
4.8219e-07
4.82095e-07
4.82006e-07
4.81926e-07
4.81853e-07
4.81788e-07
4.8173e-07
4.81678e-07
4.81631e-07
4.81587e-07
4.81544e-07
4.81502e-07
4.81462e-07
4.81425e-07
4.81393e-07
4.91275e-07
4.90008e-07
4.88943e-07
4.88039e-07
4.87268e-07
4.86606e-07
4.86032e-07
4.85531e-07
4.8509e-07
4.84701e-07
4.84357e-07
4.84051e-07
4.83779e-07
4.83538e-07
4.83322e-07
4.83128e-07
4.82954e-07
4.82796e-07
4.82652e-07
4.8252e-07
4.82399e-07
4.82289e-07
4.82187e-07
4.82092e-07
4.82004e-07
4.81924e-07
4.81851e-07
4.81787e-07
4.8173e-07
4.8168e-07
4.81635e-07
4.81592e-07
4.8155e-07
4.81508e-07
4.81467e-07
4.81429e-07
4.81395e-07
4.93547e-07
4.92321e-07
4.91289e-07
4.90414e-07
4.89667e-07
4.89025e-07
4.88469e-07
4.87984e-07
4.87558e-07
4.87183e-07
4.8685e-07
4.86556e-07
4.86295e-07
4.86063e-07
4.85856e-07
4.8567e-07
4.85502e-07
4.8535e-07
4.85212e-07
4.85086e-07
4.84971e-07
4.84865e-07
4.84767e-07
4.84677e-07
4.84594e-07
4.84518e-07
4.8445e-07
4.84389e-07
4.84337e-07
4.8429e-07
4.84248e-07
4.84208e-07
4.84169e-07
4.84129e-07
4.8409e-07
4.84051e-07
4.84017e-07
4.83988e-07
4.98867e-07
4.97742e-07
4.96796e-07
4.95994e-07
4.95309e-07
4.94721e-07
4.94213e-07
4.93769e-07
4.9338e-07
4.93038e-07
4.92735e-07
4.92467e-07
4.9223e-07
4.9202e-07
4.91832e-07
4.91663e-07
4.9151e-07
4.91372e-07
4.91247e-07
4.91133e-07
4.91029e-07
4.90933e-07
4.90845e-07
4.90764e-07
4.9069e-07
4.90624e-07
4.90564e-07
4.90512e-07
4.90466e-07
4.90426e-07
4.9039e-07
4.90355e-07
4.9032e-07
4.90285e-07
4.9025e-07
4.90215e-07
4.90184e-07
4.90159e-07
5.09439e-07
5.08499e-07
5.0771e-07
5.07041e-07
5.0647e-07
5.05979e-07
5.05554e-07
5.05184e-07
5.04859e-07
5.04573e-07
5.0432e-07
5.04097e-07
5.03899e-07
5.03723e-07
5.03565e-07
5.03423e-07
5.03295e-07
5.0318e-07
5.03075e-07
5.0298e-07
5.02894e-07
5.02814e-07
5.02741e-07
5.02674e-07
5.02614e-07
5.02561e-07
5.02514e-07
5.02473e-07
5.02438e-07
5.02408e-07
5.0238e-07
5.02354e-07
5.02327e-07
5.02301e-07
5.02275e-07
5.0225e-07
5.02229e-07
5.02213e-07
5.38868e-07
5.3806e-07
5.37372e-07
5.36782e-07
5.36271e-07
5.35826e-07
5.35435e-07
5.35088e-07
5.34781e-07
5.34508e-07
5.34264e-07
5.34047e-07
5.33852e-07
5.33676e-07
5.33517e-07
5.33374e-07
5.33243e-07
5.33125e-07
5.33017e-07
5.32919e-07
5.32829e-07
5.32745e-07
5.32669e-07
5.326e-07
5.32539e-07
5.32487e-07
5.32442e-07
5.32405e-07
5.32373e-07
5.32348e-07
5.32326e-07
5.32307e-07
5.3229e-07
5.32276e-07
5.32266e-07
5.32259e-07
5.32258e-07
5.32265e-07
7.84907e-07
7.81283e-07
7.78063e-07
7.7519e-07
7.7261e-07
7.70276e-07
7.6816e-07
7.66242e-07
7.64509e-07
7.62944e-07
7.61524e-07
7.60232e-07
7.59049e-07
7.57965e-07
7.56973e-07
7.5607e-07
7.5525e-07
7.54506e-07
7.53831e-07
7.53216e-07
7.52659e-07
7.52161e-07
7.51721e-07
7.51337e-07
7.50998e-07
7.50696e-07
7.5042e-07
7.50165e-07
7.49929e-07
7.49711e-07
7.49517e-07
7.49354e-07
7.49234e-07
7.49166e-07
7.49159e-07
7.49188e-07
7.49265e-07
7.49381e-07
8.49322e-07
8.44866e-07
8.40893e-07
8.37333e-07
8.34135e-07
8.31254e-07
8.28652e-07
8.26293e-07
8.24152e-07
8.22206e-07
8.20437e-07
8.1883e-07
8.17377e-07
8.1607e-07
8.14887e-07
8.13813e-07
8.12835e-07
8.11946e-07
8.11141e-07
8.10413e-07
8.09757e-07
8.09173e-07
8.08657e-07
8.08203e-07
8.07799e-07
8.07437e-07
8.07112e-07
8.06822e-07
8.06567e-07
8.06347e-07
8.06163e-07
8.06016e-07
8.05908e-07
8.05839e-07
8.05805e-07
8.05804e-07
8.0582e-07
8.05859e-07
5.45701e-07
5.44685e-07
5.43827e-07
5.43096e-07
5.42466e-07
5.41921e-07
5.41444e-07
5.41026e-07
5.40655e-07
5.40326e-07
5.40033e-07
5.3977e-07
5.39536e-07
5.39329e-07
5.39142e-07
5.38976e-07
5.38827e-07
5.38693e-07
5.3857e-07
5.38458e-07
5.38357e-07
5.38263e-07
5.38177e-07
5.38098e-07
5.3803e-07
5.3797e-07
5.3792e-07
5.37875e-07
5.37837e-07
5.37803e-07
5.37773e-07
5.37746e-07
5.37722e-07
5.377e-07
5.37682e-07
5.3767e-07
5.37664e-07
5.37665e-07
4.95093e-07
4.9402e-07
4.93138e-07
4.92406e-07
4.91793e-07
4.91274e-07
4.90832e-07
4.90452e-07
4.90123e-07
4.89838e-07
4.89587e-07
4.89366e-07
4.8917e-07
4.88996e-07
4.88841e-07
4.88703e-07
4.88579e-07
4.88467e-07
4.88365e-07
4.88273e-07
4.88188e-07
4.88109e-07
4.88037e-07
4.8797e-07
4.8791e-07
4.87856e-07
4.87808e-07
4.87765e-07
4.87727e-07
4.87691e-07
4.87658e-07
4.87628e-07
4.87598e-07
4.87571e-07
4.87545e-07
4.87522e-07
4.87503e-07
4.87488e-07
4.74677e-07
4.73421e-07
4.72389e-07
4.71533e-07
4.70816e-07
4.70211e-07
4.69696e-07
4.69254e-07
4.68872e-07
4.6854e-07
4.6825e-07
4.67993e-07
4.67766e-07
4.67565e-07
4.67386e-07
4.67226e-07
4.67082e-07
4.66953e-07
4.66836e-07
4.66728e-07
4.6663e-07
4.66539e-07
4.66456e-07
4.66379e-07
4.66309e-07
4.66244e-07
4.66186e-07
4.66133e-07
4.66085e-07
4.66041e-07
4.66001e-07
4.65963e-07
4.65927e-07
4.65892e-07
4.65858e-07
4.65827e-07
4.65799e-07
4.65775e-07
4.6485e-07
4.6348e-07
4.62353e-07
4.61416e-07
4.6063e-07
4.59966e-07
4.594e-07
4.58914e-07
4.58494e-07
4.58128e-07
4.57807e-07
4.57523e-07
4.57272e-07
4.5705e-07
4.56852e-07
4.56676e-07
4.56518e-07
4.56376e-07
4.56247e-07
4.5613e-07
4.56022e-07
4.55923e-07
4.55832e-07
4.55748e-07
4.5567e-07
4.55598e-07
4.55533e-07
4.55473e-07
4.55418e-07
4.55369e-07
4.55324e-07
4.55283e-07
4.55243e-07
4.55205e-07
4.55168e-07
4.55132e-07
4.55098e-07
4.55068e-07
4.59417e-07
4.58247e-07
4.57273e-07
4.56455e-07
4.55763e-07
4.55173e-07
4.54666e-07
4.54227e-07
4.53845e-07
4.53509e-07
4.53212e-07
4.5295e-07
4.52718e-07
4.52512e-07
4.52328e-07
4.52164e-07
4.52017e-07
4.51883e-07
4.51761e-07
4.5165e-07
4.51547e-07
4.51453e-07
4.51366e-07
4.51286e-07
4.51211e-07
4.51141e-07
4.51078e-07
4.51021e-07
4.5097e-07
4.50925e-07
4.50882e-07
4.50842e-07
4.50803e-07
4.50764e-07
4.50726e-07
4.50689e-07
4.50655e-07
4.59422e-07
4.5825e-07
4.57275e-07
4.56455e-07
4.55761e-07
4.55169e-07
4.5466e-07
4.5422e-07
4.53836e-07
4.53499e-07
4.53202e-07
4.52939e-07
4.52707e-07
4.52502e-07
4.52319e-07
4.52155e-07
4.52008e-07
4.51875e-07
4.51754e-07
4.51644e-07
4.51542e-07
4.51449e-07
4.51363e-07
4.51283e-07
4.51208e-07
4.51139e-07
4.51077e-07
4.5102e-07
4.50971e-07
4.50926e-07
4.50886e-07
4.50847e-07
4.50809e-07
4.5077e-07
4.50731e-07
4.50693e-07
4.50657e-07
4.63492e-07
4.62362e-07
4.6142e-07
4.60629e-07
4.59958e-07
4.59387e-07
4.58897e-07
4.58472e-07
4.58103e-07
4.57778e-07
4.57493e-07
4.57241e-07
4.5702e-07
4.56823e-07
4.56649e-07
4.56493e-07
4.56352e-07
4.56225e-07
4.5611e-07
4.56005e-07
4.55909e-07
4.55821e-07
4.55739e-07
4.55662e-07
4.55592e-07
4.55527e-07
4.55469e-07
4.55417e-07
4.55371e-07
4.55331e-07
4.55294e-07
4.55258e-07
4.55222e-07
4.55186e-07
4.55148e-07
4.55111e-07
4.55075e-07
4.55042e-07
4.73437e-07
4.72401e-07
4.71538e-07
4.70814e-07
4.70201e-07
4.69678e-07
4.6923e-07
4.68843e-07
4.68506e-07
4.68211e-07
4.67952e-07
4.67724e-07
4.67523e-07
4.67345e-07
4.67188e-07
4.67047e-07
4.6692e-07
4.66805e-07
4.66701e-07
4.66607e-07
4.66521e-07
4.66441e-07
4.66367e-07
4.66298e-07
4.66236e-07
4.66179e-07
4.66128e-07
4.66084e-07
4.66045e-07
4.66011e-07
4.6598e-07
4.6595e-07
4.6592e-07
4.65887e-07
4.65853e-07
4.65818e-07
4.65785e-07
4.65755e-07
4.94032e-07
4.93146e-07
4.92408e-07
4.91788e-07
4.91263e-07
4.90815e-07
4.90431e-07
4.90098e-07
4.89807e-07
4.89553e-07
4.8933e-07
4.89133e-07
4.8896e-07
4.88807e-07
4.88671e-07
4.88549e-07
4.88439e-07
4.8834e-07
4.8825e-07
4.88169e-07
4.88094e-07
4.88025e-07
4.87961e-07
4.87902e-07
4.87849e-07
4.87801e-07
4.8776e-07
4.87726e-07
4.87696e-07
4.87672e-07
4.87649e-07
4.87628e-07
4.87604e-07
4.87579e-07
4.87552e-07
4.87524e-07
4.87499e-07
4.87477e-07
5.44671e-07
5.43811e-07
5.4308e-07
5.42453e-07
5.4191e-07
5.41436e-07
5.41019e-07
5.40651e-07
5.40325e-07
5.40035e-07
5.39777e-07
5.39546e-07
5.39338e-07
5.39151e-07
5.38986e-07
5.38838e-07
5.38703e-07
5.38581e-07
5.3847e-07
5.3837e-07
5.38277e-07
5.3819e-07
5.38109e-07
5.38036e-07
5.37972e-07
5.37917e-07
5.37871e-07
5.37834e-07
5.37805e-07
5.37783e-07
5.37765e-07
5.37748e-07
5.3773e-07
5.37711e-07
5.37693e-07
5.37678e-07
5.37668e-07
5.37665e-07
8.44611e-07
8.40639e-07
8.37114e-07
8.33973e-07
8.3115e-07
8.28592e-07
8.2627e-07
8.24168e-07
8.22272e-07
8.20561e-07
8.19008e-07
8.1759e-07
8.16291e-07
8.15099e-07
8.14022e-07
8.13046e-07
8.12161e-07
8.11359e-07
8.10631e-07
8.09969e-07
8.09371e-07
8.08836e-07
8.08366e-07
8.07954e-07
8.0759e-07
8.07262e-07
8.06961e-07
8.06682e-07
8.06422e-07
8.06182e-07
8.05966e-07
8.05784e-07
8.05648e-07
8.05567e-07
8.05551e-07
8.05576e-07
8.05649e-07
8.05763e-07
8.89598e-07
8.84793e-07
8.80515e-07
8.76686e-07
8.7325e-07
8.70156e-07
8.67364e-07
8.64836e-07
8.62543e-07
8.60461e-07
8.58571e-07
8.56856e-07
8.55302e-07
8.539e-07
8.52632e-07
8.51485e-07
8.50449e-07
8.49509e-07
8.48657e-07
8.47887e-07
8.47193e-07
8.46573e-07
8.46026e-07
8.45543e-07
8.45114e-07
8.44728e-07
8.44381e-07
8.44073e-07
8.43802e-07
8.43567e-07
8.43369e-07
8.43208e-07
8.43087e-07
8.43006e-07
8.42961e-07
8.42953e-07
8.42963e-07
8.42988e-07
5.4983e-07
5.48722e-07
5.47789e-07
5.46994e-07
5.46311e-07
5.4572e-07
5.45204e-07
5.44751e-07
5.44351e-07
5.43996e-07
5.4368e-07
5.43397e-07
5.43144e-07
5.42918e-07
5.42715e-07
5.42536e-07
5.42377e-07
5.42234e-07
5.42104e-07
5.41985e-07
5.41876e-07
5.41775e-07
5.41681e-07
5.41595e-07
5.4152e-07
5.41455e-07
5.41399e-07
5.4135e-07
5.41307e-07
5.4127e-07
5.41237e-07
5.41206e-07
5.41179e-07
5.41154e-07
5.41134e-07
5.41121e-07
5.41115e-07
5.41114e-07
4.84857e-07
4.83801e-07
4.82938e-07
4.82226e-07
4.81632e-07
4.81133e-07
4.80711e-07
4.8035e-07
4.80039e-07
4.7977e-07
4.79535e-07
4.79329e-07
4.79147e-07
4.78985e-07
4.78842e-07
4.78714e-07
4.786e-07
4.78498e-07
4.78404e-07
4.78319e-07
4.78241e-07
4.78169e-07
4.78102e-07
4.7804e-07
4.77984e-07
4.77934e-07
4.7789e-07
4.7785e-07
4.77814e-07
4.77781e-07
4.7775e-07
4.77721e-07
4.77694e-07
4.77668e-07
4.77643e-07
4.77622e-07
4.77604e-07
4.7759e-07
4.5725e-07
4.56052e-07
4.55074e-07
4.54268e-07
4.53599e-07
4.53038e-07
4.52563e-07
4.52159e-07
4.51812e-07
4.51513e-07
4.51252e-07
4.51024e-07
4.50823e-07
4.50645e-07
4.50487e-07
4.50346e-07
4.50221e-07
4.50108e-07
4.50005e-07
4.49912e-07
4.49827e-07
4.49748e-07
4.49675e-07
4.49608e-07
4.49546e-07
4.4949e-07
4.49439e-07
4.49392e-07
4.4935e-07
4.49311e-07
4.49275e-07
4.49241e-07
4.49209e-07
4.49177e-07
4.49147e-07
4.49119e-07
4.49094e-07
4.49071e-07
4.43892e-07
4.42592e-07
4.4153e-07
4.40653e-07
4.39923e-07
4.3931e-07
4.38791e-07
4.38349e-07
4.37969e-07
4.3764e-07
4.37354e-07
4.37103e-07
4.36881e-07
4.36686e-07
4.36513e-07
4.36359e-07
4.36221e-07
4.36098e-07
4.35986e-07
4.35884e-07
4.35791e-07
4.35706e-07
4.35627e-07
4.35555e-07
4.35488e-07
4.35426e-07
4.35369e-07
4.35317e-07