/*--------------------------------*- C++ -*----------------------------------*\
| =========                 |                                                 |
| \\      /  F ield         | OpenFOAM: The Open Source CFD Toolbox           |
|  \\    /   O peration     | Version:  2.3.1                                 |
|   \\  /    A nd           | Web:      www.OpenFOAM.org                      |
|    \\/     M anipulation  |                                                 |
\*---------------------------------------------------------------------------*/
FoamFile
{
    version     2.0;
    format      ascii;
    class       volScalarField;
    location    "15";
    object      epsilon_0;
}
// * * * * * * * * * * * * * * * * * * * * * * * * * * * * * * * * * * * * * //

dimensions      [0 2 -3 0 0 0 0];

internalField   nonuniform List<scalar> 
38262
(
6.01378e-07
5.92408e-07
5.84496e-07
5.77481e-07
5.71234e-07
5.65649e-07
5.60637e-07
5.56124e-07
5.52047e-07
5.48354e-07
5.45003e-07
5.41958e-07
5.39191e-07
5.36675e-07
5.34388e-07
5.32307e-07
5.30411e-07
5.28683e-07
5.2711e-07
5.25679e-07
5.24381e-07
5.23209e-07
5.22158e-07
5.2122e-07
5.20386e-07
5.19643e-07
5.18983e-07
5.18396e-07
5.17873e-07
5.17412e-07
5.1701e-07
5.16667e-07
5.16385e-07
5.16164e-07
5.16011e-07
5.15922e-07
5.15894e-07
5.15904e-07
9.79924e-07
9.69147e-07
9.59606e-07
9.51124e-07
9.43559e-07
9.36789e-07
9.30705e-07
9.25219e-07
9.2026e-07
9.15765e-07
9.11687e-07
9.0799e-07
9.04643e-07
9.01614e-07
8.98866e-07
8.96364e-07
8.94087e-07
8.92021e-07
8.90149e-07
8.88459e-07
8.86943e-07
8.856e-07
8.84415e-07
8.83372e-07
8.82448e-07
8.81626e-07
8.80887e-07
8.80221e-07
8.79628e-07
8.79115e-07
8.78691e-07
8.78361e-07
8.78128e-07
8.77992e-07
8.77953e-07
8.77974e-07
8.78066e-07
8.78211e-07
1.17136e-06
1.16113e-06
1.15206e-06
1.14397e-06
1.13674e-06
1.13026e-06
1.12444e-06
1.11919e-06
1.11444e-06
1.11014e-06
1.10623e-06
1.1027e-06
1.09952e-06
1.09665e-06
1.09405e-06
1.09168e-06
1.08952e-06
1.08757e-06
1.0858e-06
1.08422e-06
1.0828e-06
1.08156e-06
1.08046e-06
1.0795e-06
1.07866e-06
1.07791e-06
1.07725e-06
1.07666e-06
1.07613e-06
1.07569e-06
1.07534e-06
1.07507e-06
1.07489e-06
1.07481e-06
1.07482e-06
1.07489e-06
1.07504e-06
1.07523e-06
1.26454e-06
1.25477e-06
1.24609e-06
1.23833e-06
1.23139e-06
1.22517e-06
1.21957e-06
1.21452e-06
1.20996e-06
1.20582e-06
1.20208e-06
1.19871e-06
1.1957e-06
1.19297e-06
1.1905e-06
1.18824e-06
1.18617e-06
1.18431e-06
1.18262e-06
1.1811e-06
1.17976e-06
1.17858e-06
1.17754e-06
1.17663e-06
1.17584e-06
1.17515e-06
1.17455e-06
1.17403e-06
1.17358e-06
1.1732e-06
1.17289e-06
1.17264e-06
1.17248e-06
1.17242e-06
1.17245e-06
1.17256e-06
1.17275e-06
1.17297e-06
1.3048e-06
1.29527e-06
1.28679e-06
1.27921e-06
1.27243e-06
1.26634e-06
1.26087e-06
1.25592e-06
1.25145e-06
1.2474e-06
1.24377e-06
1.24051e-06
1.23759e-06
1.23495e-06
1.23255e-06
1.23035e-06
1.22834e-06
1.22652e-06
1.22486e-06
1.22337e-06
1.22205e-06
1.22089e-06
1.21987e-06
1.21896e-06
1.21818e-06
1.21753e-06
1.21698e-06
1.21651e-06
1.21612e-06
1.21577e-06
1.21547e-06
1.21522e-06
1.21505e-06
1.21497e-06
1.215e-06
1.21512e-06
1.21533e-06
1.21558e-06
1.30946e-06
1.30105e-06
1.29355e-06
1.28685e-06
1.28085e-06
1.27543e-06
1.27053e-06
1.26611e-06
1.26212e-06
1.25855e-06
1.25535e-06
1.25248e-06
1.24987e-06
1.24749e-06
1.24532e-06
1.24334e-06
1.24153e-06
1.23988e-06
1.23839e-06
1.23707e-06
1.2359e-06
1.23487e-06
1.23396e-06
1.23317e-06
1.23253e-06
1.232e-06
1.23157e-06
1.2312e-06
1.23087e-06
1.23056e-06
1.23029e-06
1.23008e-06
1.22998e-06
1.22999e-06
1.2301e-06
1.23032e-06
1.23061e-06
1.30933e-06
1.30091e-06
1.29344e-06
1.28678e-06
1.28081e-06
1.27543e-06
1.27056e-06
1.26615e-06
1.2622e-06
1.25866e-06
1.25548e-06
1.25262e-06
1.25002e-06
1.24764e-06
1.24546e-06
1.24347e-06
1.24166e-06
1.24001e-06
1.23852e-06
1.23719e-06
1.23601e-06
1.23496e-06
1.23403e-06
1.23324e-06
1.23259e-06
1.23206e-06
1.23163e-06
1.23126e-06
1.23091e-06
1.23058e-06
1.23028e-06
1.23004e-06
1.22991e-06
1.2299e-06
1.23e-06
1.23023e-06
1.23054e-06
1.29492e-06
1.28643e-06
1.27891e-06
1.27223e-06
1.26625e-06
1.26086e-06
1.25598e-06
1.25158e-06
1.24761e-06
1.24406e-06
1.24088e-06
1.238e-06
1.23537e-06
1.23295e-06
1.23074e-06
1.22872e-06
1.2269e-06
1.22524e-06
1.22374e-06
1.22239e-06
1.22118e-06
1.22011e-06
1.21917e-06
1.21837e-06
1.2177e-06
1.21715e-06
1.21668e-06
1.21628e-06
1.2159e-06
1.21553e-06
1.2152e-06
1.21493e-06
1.21476e-06
1.21474e-06
1.21482e-06
1.21504e-06
1.21536e-06
1.21577e-06
1.25429e-06
1.24561e-06
1.23792e-06
1.23111e-06
1.22502e-06
1.21954e-06
1.21458e-06
1.2101e-06
1.20607e-06
1.20245e-06
1.1992e-06
1.19625e-06
1.19355e-06
1.19107e-06
1.18879e-06
1.18671e-06
1.18484e-06
1.18316e-06
1.18163e-06
1.18025e-06
1.17901e-06
1.17791e-06
1.17695e-06
1.17612e-06
1.17541e-06
1.17481e-06
1.17429e-06
1.17382e-06
1.17339e-06
1.17298e-06
1.1726e-06
1.1723e-06
1.1721e-06
1.17206e-06
1.17212e-06
1.17231e-06
1.17262e-06
1.17303e-06
1.16062e-06
1.15153e-06
1.14351e-06
1.13639e-06
1.13004e-06
1.12433e-06
1.11917e-06
1.1145e-06
1.1103e-06
1.10653e-06
1.10313e-06
1.10004e-06
1.09722e-06
1.09462e-06
1.09224e-06
1.09007e-06
1.08812e-06
1.08637e-06
1.08478e-06
1.08334e-06
1.08204e-06
1.08088e-06
1.07986e-06
1.07898e-06
1.07822e-06
1.07755e-06
1.07696e-06
1.07642e-06
1.07592e-06
1.07546e-06
1.07503e-06
1.07469e-06
1.07445e-06
1.07435e-06
1.07438e-06
1.07452e-06
1.07478e-06
1.07516e-06
9.68663e-07
9.59093e-07
9.50631e-07
9.43128e-07
9.36435e-07
9.30419e-07
9.24986e-07
9.20083e-07
9.15668e-07
9.11696e-07
9.08113e-07
9.04862e-07
9.01893e-07
8.9917e-07
8.96676e-07
8.94406e-07
8.92358e-07
8.90513e-07
8.88846e-07
8.87335e-07
8.85971e-07
8.8475e-07
8.83674e-07
8.82738e-07
8.81924e-07
8.81206e-07
8.80559e-07
8.79963e-07
8.79409e-07
8.78893e-07
8.78422e-07
8.7802e-07
8.77719e-07
8.77543e-07
8.77505e-07
8.77557e-07
8.7773e-07
8.7804e-07
5.92139e-07
5.84187e-07
5.77147e-07
5.70896e-07
5.65325e-07
5.60336e-07
5.55849e-07
5.51802e-07
5.48149e-07
5.4485e-07
5.41869e-07
5.39169e-07
5.36716e-07
5.34482e-07
5.32442e-07
5.30577e-07
5.28877e-07
5.27328e-07
5.25918e-07
5.24636e-07
5.2347e-07
5.22413e-07
5.21463e-07
5.20614e-07
5.19862e-07
5.19196e-07
5.18604e-07
5.18074e-07
5.17595e-07
5.17161e-07
5.16768e-07
5.16417e-07
5.16117e-07
5.1588e-07
5.15709e-07
5.15634e-07
5.15637e-07
5.15714e-07
5.55266e-07
5.52221e-07
5.49496e-07
5.4705e-07
5.44847e-07
5.42854e-07
5.41046e-07
5.39401e-07
5.37901e-07
5.36532e-07
5.35281e-07
5.3414e-07
5.33101e-07
5.32159e-07
5.31305e-07
5.30528e-07
5.29822e-07
5.2918e-07
5.28599e-07
5.28074e-07
5.27602e-07
5.27184e-07
5.26817e-07
5.26496e-07
5.26213e-07
5.25962e-07
5.25738e-07
5.25539e-07
5.25366e-07
5.25219e-07
5.25101e-07
5.25011e-07
5.24951e-07
5.24921e-07
5.24914e-07
5.24923e-07
5.24946e-07
5.24983e-07
5.67946e-07
5.65724e-07
5.63795e-07
5.62107e-07
5.60623e-07
5.59314e-07
5.58151e-07
5.57114e-07
5.56185e-07
5.55351e-07
5.54599e-07
5.53921e-07
5.53311e-07
5.52761e-07
5.52264e-07
5.51814e-07
5.51405e-07
5.51034e-07
5.50699e-07
5.50396e-07
5.50125e-07
5.49884e-07
5.49673e-07
5.49487e-07
5.49323e-07
5.49177e-07
5.49046e-07
5.48927e-07
5.4882e-07
5.48726e-07
5.48648e-07
5.48587e-07
5.48543e-07
5.48517e-07
5.48508e-07
5.48514e-07
5.48531e-07
5.48564e-07
6.26638e-07
6.23933e-07
6.21595e-07
6.19559e-07
6.17775e-07
6.16204e-07
6.14814e-07
6.1358e-07
6.12479e-07
6.11494e-07
6.10608e-07
6.0981e-07
6.09093e-07
6.08448e-07
6.07866e-07
6.07339e-07
6.0686e-07
6.06425e-07
6.0603e-07
6.05673e-07
6.0535e-07
6.05061e-07
6.04803e-07
6.04574e-07
6.0437e-07
6.0419e-07
6.04029e-07
6.03886e-07
6.03758e-07
6.03645e-07
6.03548e-07
6.03466e-07
6.03401e-07
6.03353e-07
6.03321e-07
6.03305e-07
6.0331e-07
6.03329e-07
6.54801e-07
6.51849e-07
6.49302e-07
6.47086e-07
6.45147e-07
6.43441e-07
6.41933e-07
6.40596e-07
6.39404e-07
6.38338e-07
6.37379e-07
6.36518e-07
6.35745e-07
6.35051e-07
6.34425e-07
6.3386e-07
6.33346e-07
6.32879e-07
6.32455e-07
6.3207e-07
6.31722e-07
6.31409e-07
6.31129e-07
6.30878e-07
6.30653e-07
6.30454e-07
6.30278e-07
6.30123e-07
6.29987e-07
6.29866e-07
6.29762e-07
6.29673e-07
6.29597e-07
6.29538e-07
6.29494e-07
6.29468e-07
6.29463e-07
6.29475e-07
6.65911e-07
6.62871e-07
6.60248e-07
6.57967e-07
6.55972e-07
6.54218e-07
6.5267e-07
6.51296e-07
6.50071e-07
6.48974e-07
6.47989e-07
6.47106e-07
6.46315e-07
6.45605e-07
6.44965e-07
6.44387e-07
6.43862e-07
6.43386e-07
6.42954e-07
6.42561e-07
6.42204e-07
6.41883e-07
6.41596e-07
6.41337e-07
6.41103e-07
6.40896e-07
6.40713e-07
6.40555e-07
6.40416e-07
6.40296e-07
6.40192e-07
6.40101e-07
6.40021e-07
6.39957e-07
6.39908e-07
6.39875e-07
6.39864e-07
6.39875e-07
6.66433e-07
6.63785e-07
6.61483e-07
6.59471e-07
6.57705e-07
6.56147e-07
6.54762e-07
6.53527e-07
6.5242e-07
6.51429e-07
6.50542e-07
6.49748e-07
6.49035e-07
6.48391e-07
6.4781e-07
6.47283e-07
6.46806e-07
6.46373e-07
6.45978e-07
6.4562e-07
6.45298e-07
6.45008e-07
6.44747e-07
6.4451e-07
6.44299e-07
6.44114e-07
6.43955e-07
6.43818e-07
6.43699e-07
6.43596e-07
6.43504e-07
6.43423e-07
6.43355e-07
6.43303e-07
6.43267e-07
6.43251e-07
6.4326e-07
6.66431e-07
6.63778e-07
6.61472e-07
6.59459e-07
6.57694e-07
6.56136e-07
6.54751e-07
6.53515e-07
6.52409e-07
6.5142e-07
6.50536e-07
6.49744e-07
6.49032e-07
6.4839e-07
6.47808e-07
6.47282e-07
6.46806e-07
6.46374e-07
6.45981e-07
6.45624e-07
6.45302e-07
6.45013e-07
6.4475e-07
6.44513e-07
6.44302e-07
6.44118e-07
6.43959e-07
6.43823e-07
6.43706e-07
6.43603e-07
6.4351e-07
6.43427e-07
6.43357e-07
6.43303e-07
6.43263e-07
6.43244e-07
6.43252e-07
6.62862e-07
6.60226e-07
6.57935e-07
6.55936e-07
6.54183e-07
6.52637e-07
6.51263e-07
6.50037e-07
6.4894e-07
6.4796e-07
6.47084e-07
6.463e-07
6.45595e-07
6.44958e-07
6.4438e-07
6.43857e-07
6.43383e-07
6.42955e-07
6.42566e-07
6.42214e-07
6.41895e-07
6.41607e-07
6.41346e-07
6.41113e-07
6.40906e-07
6.40725e-07
6.40568e-07
6.40433e-07
6.40316e-07
6.40212e-07
6.40118e-07
6.40034e-07
6.39961e-07
6.39906e-07
6.39864e-07
6.39843e-07
6.39849e-07
6.39886e-07
6.5183e-07
6.49265e-07
6.47036e-07
6.45091e-07
6.43386e-07
6.41881e-07
6.40544e-07
6.3935e-07
6.38283e-07
6.3733e-07
6.36478e-07
6.35715e-07
6.35029e-07
6.34408e-07
6.33845e-07
6.33332e-07
6.32869e-07
6.32452e-07
6.32075e-07
6.31733e-07
6.31423e-07
6.31143e-07
6.30892e-07
6.30668e-07
6.30471e-07
6.30299e-07
6.30148e-07
6.30016e-07
6.299e-07
6.29796e-07
6.29701e-07
6.29616e-07
6.29543e-07
6.29488e-07
6.29448e-07
6.29427e-07
6.29433e-07
6.2947e-07
6.23896e-07
6.21541e-07
6.19493e-07
6.17705e-07
6.16136e-07
6.14749e-07
6.13515e-07
6.12413e-07
6.11427e-07
6.10547e-07
6.09761e-07
6.09055e-07
6.08419e-07
6.07842e-07
6.07317e-07
6.0684e-07
6.06409e-07
6.06022e-07
6.05674e-07
6.0536e-07
6.05075e-07
6.04819e-07
6.04592e-07
6.04391e-07
6.04216e-07
6.04062e-07
6.03927e-07
6.03806e-07
6.03696e-07
6.03595e-07
6.03503e-07
6.03421e-07
6.03351e-07
6.03301e-07
6.03268e-07
6.03255e-07
6.03266e-07
6.03312e-07
5.65657e-07
5.63715e-07
5.62026e-07
5.60549e-07
5.59249e-07
5.58094e-07
5.57061e-07
5.56136e-07
5.55308e-07
5.5457e-07
5.53908e-07
5.53312e-07
5.52771e-07
5.52277e-07
5.51826e-07
5.51417e-07
5.5105e-07
5.50721e-07
5.50426e-07
5.50159e-07
5.4992e-07
5.49706e-07
5.49519e-07
5.49357e-07
5.49218e-07
5.49096e-07
5.48986e-07
5.48884e-07
5.48789e-07
5.48698e-07
5.48614e-07
5.4854e-07
5.48484e-07
5.48449e-07
5.48438e-07
5.48446e-07
5.48475e-07
5.48541e-07
5.52026e-07
5.49303e-07
5.46876e-07
5.44707e-07
5.42756e-07
5.40987e-07
5.39377e-07
5.37916e-07
5.36592e-07
5.35395e-07
5.34307e-07
5.33315e-07
5.32406e-07
5.3157e-07
5.30802e-07
5.30098e-07
5.29458e-07
5.28875e-07
5.28343e-07
5.27858e-07
5.27416e-07
5.27018e-07
5.26666e-07
5.26358e-07
5.26086e-07
5.25844e-07
5.25624e-07
5.25421e-07
5.25237e-07
5.25071e-07
5.24926e-07
5.24809e-07
5.2473e-07
5.247e-07
5.24711e-07
5.24757e-07
5.24828e-07
5.24922e-07
6.9837e-07
6.94769e-07
6.91553e-07
6.8867e-07
6.86076e-07
6.83736e-07
6.81618e-07
6.79695e-07
6.77946e-07
6.76352e-07
6.749e-07
6.73576e-07
6.72373e-07
6.71282e-07
6.70291e-07
6.6939e-07
6.6857e-07
6.67824e-07
6.67149e-07
6.66537e-07
6.65988e-07
6.655e-07
6.6507e-07
6.64692e-07
6.64358e-07
6.64061e-07
6.63795e-07
6.63557e-07
6.63349e-07
6.63171e-07
6.63025e-07
6.62911e-07
6.62832e-07
6.62786e-07
6.62772e-07
6.6278e-07
6.62806e-07
6.62852e-07
5.36502e-07
5.35444e-07
5.34542e-07
5.33763e-07
5.33087e-07
5.32496e-07
5.31975e-07
5.31514e-07
5.31103e-07
5.30736e-07
5.30406e-07
5.3011e-07
5.29844e-07
5.29605e-07
5.29391e-07
5.29197e-07
5.29022e-07
5.28864e-07
5.28721e-07
5.28592e-07
5.28476e-07
5.28373e-07
5.28281e-07
5.282e-07
5.28129e-07
5.28066e-07
5.28011e-07
5.27961e-07
5.27917e-07
5.27879e-07
5.27847e-07
5.27821e-07
5.27802e-07
5.27789e-07
5.27781e-07
5.2778e-07
5.27785e-07
5.27795e-07
5.39926e-07
5.38555e-07
5.37397e-07
5.3641e-07
5.35561e-07
5.34826e-07
5.34186e-07
5.33625e-07
5.33131e-07
5.32693e-07
5.32304e-07
5.31955e-07
5.31643e-07
5.31364e-07
5.31113e-07
5.30888e-07
5.30683e-07
5.30498e-07
5.3033e-07
5.30177e-07
5.30039e-07
5.29913e-07
5.298e-07
5.29699e-07
5.29607e-07
5.29526e-07
5.29453e-07
5.29388e-07
5.2933e-07
5.29277e-07
5.29231e-07
5.2919e-07
5.29154e-07
5.29124e-07
5.29099e-07
5.2908e-07
5.29069e-07
5.29065e-07
5.4415e-07
5.42524e-07
5.41152e-07
5.39983e-07
5.3898e-07
5.38112e-07
5.37356e-07
5.36695e-07
5.36113e-07
5.35598e-07
5.35139e-07
5.34729e-07
5.34362e-07
5.34034e-07
5.3374e-07
5.33475e-07
5.33236e-07
5.33019e-07
5.32822e-07
5.32642e-07
5.32478e-07
5.32329e-07
5.32194e-07
5.32072e-07
5.31961e-07
5.31861e-07
5.31771e-07
5.31692e-07
5.3162e-07
5.31556e-07
5.31499e-07
5.31448e-07
5.31401e-07
5.3136e-07
5.31324e-07
5.31294e-07
5.31272e-07
5.31259e-07
5.45262e-07
5.43515e-07
5.42042e-07
5.40786e-07
5.39708e-07
5.38776e-07
5.37965e-07
5.37255e-07
5.36629e-07
5.36075e-07
5.35581e-07
5.3514e-07
5.34746e-07
5.34394e-07
5.34078e-07
5.33795e-07
5.33539e-07
5.33308e-07
5.33097e-07
5.32905e-07
5.3273e-07
5.3257e-07
5.32425e-07
5.32293e-07
5.32172e-07
5.32063e-07
5.31964e-07
5.31877e-07
5.31799e-07
5.31731e-07
5.3167e-07
5.31615e-07
5.31564e-07
5.31518e-07
5.31477e-07
5.31441e-07
5.31413e-07
5.31395e-07
5.43567e-07
5.42054e-07
5.40765e-07
5.39657e-07
5.38701e-07
5.37868e-07
5.3714e-07
5.36497e-07
5.35927e-07
5.35419e-07
5.34967e-07
5.34563e-07
5.34202e-07
5.33879e-07
5.33589e-07
5.33327e-07
5.33091e-07
5.32877e-07
5.32681e-07
5.32502e-07
5.32339e-07
5.32191e-07
5.32056e-07
5.31932e-07
5.31818e-07
5.31716e-07
5.31625e-07
5.31546e-07
5.31476e-07
5.31415e-07
5.3136e-07
5.31309e-07
5.31261e-07
5.31218e-07
5.31179e-07
5.31147e-07
5.31126e-07
5.43571e-07
5.42056e-07
5.40764e-07
5.39654e-07
5.38695e-07
5.37862e-07
5.37132e-07
5.36488e-07
5.35916e-07
5.35408e-07
5.34956e-07
5.34552e-07
5.34192e-07
5.3387e-07
5.3358e-07
5.3332e-07
5.33084e-07
5.3287e-07
5.32676e-07
5.32498e-07
5.32336e-07
5.32189e-07
5.32054e-07
5.3193e-07
5.31817e-07
5.31715e-07
5.31625e-07
5.31546e-07
5.31478e-07
5.31418e-07
5.31363e-07
5.31313e-07
5.31266e-07
5.31222e-07
5.31183e-07
5.31148e-07
5.31125e-07
5.43526e-07
5.42046e-07
5.40782e-07
5.39697e-07
5.3876e-07
5.37946e-07
5.37232e-07
5.36603e-07
5.36045e-07
5.35549e-07
5.35108e-07
5.34716e-07
5.34366e-07
5.34053e-07
5.33771e-07
5.33517e-07
5.33287e-07
5.33079e-07
5.3289e-07
5.32718e-07
5.32561e-07
5.32419e-07
5.32288e-07
5.32168e-07
5.3206e-07
5.31962e-07
5.31876e-07
5.318e-07
5.31735e-07
5.31678e-07
5.31626e-07
5.31577e-07
5.31532e-07
5.31489e-07
5.3145e-07
5.31416e-07
5.31392e-07
5.3138e-07
5.42534e-07
5.41153e-07
5.39975e-07
5.38963e-07
5.38089e-07
5.37329e-07
5.36663e-07
5.36077e-07
5.35557e-07
5.35095e-07
5.34685e-07
5.3432e-07
5.33995e-07
5.33704e-07
5.33442e-07
5.33205e-07
5.3299e-07
5.32797e-07
5.32621e-07
5.32462e-07
5.32317e-07
5.32185e-07
5.32065e-07
5.31956e-07
5.31858e-07
5.3177e-07
5.31693e-07
5.31625e-07
5.31565e-07
5.31513e-07
5.31465e-07
5.31421e-07
5.31379e-07
5.3134e-07
5.31305e-07
5.31274e-07
5.31253e-07
5.31244e-07
5.38555e-07
5.37389e-07
5.36395e-07
5.35541e-07
5.34803e-07
5.3416e-07
5.33596e-07
5.33098e-07
5.32658e-07
5.32267e-07
5.3192e-07
5.31611e-07
5.31335e-07
5.31087e-07
5.30863e-07
5.3066e-07
5.30477e-07
5.30312e-07
5.30164e-07
5.30029e-07
5.29907e-07
5.29797e-07
5.29697e-07
5.29607e-07
5.29528e-07
5.29458e-07
5.29396e-07
5.2934e-07
5.29291e-07
5.29247e-07
5.29207e-07
5.2917e-07
5.29136e-07
5.29107e-07
5.29082e-07
5.29063e-07
5.29052e-07
5.29053e-07
5.35419e-07
5.34513e-07
5.33736e-07
5.33064e-07
5.32479e-07
5.31964e-07
5.31508e-07
5.31101e-07
5.3074e-07
5.30417e-07
5.3013e-07
5.29871e-07
5.29638e-07
5.29426e-07
5.29233e-07
5.29058e-07
5.289e-07
5.28757e-07
5.28628e-07
5.28512e-07
5.28406e-07
5.2831e-07
5.28224e-07
5.28149e-07
5.28083e-07
5.28026e-07
5.27975e-07
5.27929e-07
5.27888e-07
5.27851e-07
5.27819e-07
5.27791e-07
5.27769e-07
5.27755e-07
5.27751e-07
5.27754e-07
5.27766e-07
5.2779e-07
6.9457e-07
6.91351e-07
6.88484e-07
6.85924e-07
6.83623e-07
6.8154e-07
6.79649e-07
6.77934e-07
6.76382e-07
6.74979e-07
6.73707e-07
6.72547e-07
6.71485e-07
6.70511e-07
6.69617e-07
6.688e-07
6.68059e-07
6.67385e-07
6.66773e-07
6.66215e-07
6.65708e-07
6.65254e-07
6.64852e-07
6.64501e-07
6.64192e-07
6.63916e-07
6.63666e-07
6.63436e-07
6.63225e-07
6.63031e-07
6.6286e-07
6.62718e-07
6.62616e-07
6.62563e-07
6.62565e-07
6.62598e-07
6.62676e-07
6.62787e-07
7.89277e-07
7.85219e-07
7.81602e-07
7.78363e-07
7.75452e-07
7.7283e-07
7.7046e-07
7.68313e-07
7.66363e-07
7.64589e-07
7.62975e-07
7.61507e-07
7.60173e-07
7.58965e-07
7.57869e-07
7.56872e-07
7.55965e-07
7.55139e-07
7.54392e-07
7.53715e-07
7.53107e-07
7.52566e-07
7.52088e-07
7.51668e-07
7.51295e-07
7.50963e-07
7.50664e-07
7.50397e-07
7.50163e-07
7.49962e-07
7.49795e-07
7.49663e-07
7.49569e-07
7.49512e-07
7.49489e-07
7.49494e-07
7.49518e-07
7.49563e-07
5.39905e-07
5.38951e-07
5.38145e-07
5.37458e-07
5.36867e-07
5.36354e-07
5.35905e-07
5.3551e-07
5.35161e-07
5.3485e-07
5.34573e-07
5.34324e-07
5.34101e-07
5.33901e-07
5.33722e-07
5.33561e-07
5.33416e-07
5.33285e-07
5.33167e-07
5.33059e-07
5.32962e-07
5.32873e-07
5.32793e-07
5.32721e-07
5.32657e-07
5.32603e-07
5.32555e-07
5.32514e-07
5.32478e-07
5.32446e-07
5.32419e-07
5.32395e-07
5.32375e-07
5.32358e-07
5.32344e-07
5.32336e-07
5.32334e-07
5.32336e-07
5.10609e-07
5.09483e-07
5.08549e-07
5.07766e-07
5.07103e-07
5.06538e-07
5.06052e-07
5.05632e-07
5.05265e-07
5.04944e-07
5.04661e-07
5.04409e-07
5.04186e-07
5.03986e-07
5.03808e-07
5.03648e-07
5.03504e-07
5.03374e-07
5.03256e-07
5.03148e-07
5.0305e-07
5.0296e-07
5.02877e-07
5.02802e-07
5.02735e-07
5.02674e-07
5.0262e-07
5.02571e-07
5.02528e-07
5.02488e-07
5.02452e-07
5.02418e-07
5.02387e-07
5.02359e-07
5.02333e-07
5.0231e-07
5.02293e-07
5.0228e-07
5.00246e-07
4.98898e-07
4.97779e-07
4.9684e-07
4.96047e-07
4.9537e-07
4.94789e-07
4.94286e-07
4.93848e-07
4.93465e-07
4.93126e-07
4.92825e-07
4.92558e-07
4.92319e-07
4.92107e-07
4.91916e-07
4.91745e-07
4.9159e-07
4.91449e-07
4.9132e-07
4.91202e-07
4.91094e-07
4.90995e-07
4.90904e-07
4.90821e-07
4.90745e-07
4.90677e-07
4.90616e-07
4.9056e-07
4.9051e-07
4.90464e-07
4.90421e-07
4.90381e-07
4.90343e-07
4.90308e-07
4.90276e-07
4.90248e-07
4.90226e-07
4.95047e-07
4.93577e-07
4.92355e-07
4.91329e-07
4.90461e-07
4.8972e-07
4.89083e-07
4.88532e-07
4.88051e-07
4.8763e-07
4.87257e-07
4.86926e-07
4.86632e-07
4.8637e-07
4.86136e-07
4.85927e-07
4.85739e-07
4.8557e-07
4.85416e-07
4.85275e-07
4.85146e-07
4.85028e-07
4.8492e-07
4.8482e-07
4.84728e-07
4.84644e-07
4.84567e-07
4.84498e-07
4.84435e-07
4.84379e-07
4.84329e-07
4.84282e-07
4.84238e-07
4.84196e-07
4.84156e-07
4.84119e-07
4.84085e-07
4.84057e-07
4.91311e-07
4.90046e-07
4.88983e-07
4.88083e-07
4.87314e-07
4.86653e-07
4.86081e-07
4.85582e-07
4.85143e-07
4.84755e-07
4.84411e-07
4.84105e-07
4.83833e-07
4.83591e-07
4.83374e-07
4.8318e-07
4.83005e-07
4.82846e-07
4.82702e-07
4.82569e-07
4.82447e-07
4.82335e-07
4.82233e-07
4.82138e-07
4.82049e-07
4.81969e-07
4.81896e-07
4.8183e-07
4.81773e-07
4.81721e-07
4.81674e-07
4.8163e-07
4.81587e-07
4.81545e-07
4.81505e-07
4.81468e-07
4.81436e-07
4.91316e-07
4.9005e-07
4.88984e-07
4.88081e-07
4.87311e-07
4.86648e-07
4.86074e-07
4.85573e-07
4.85133e-07
4.84744e-07
4.84399e-07
4.84093e-07
4.83822e-07
4.8358e-07
4.83365e-07
4.83171e-07
4.82996e-07
4.82838e-07
4.82695e-07
4.82563e-07
4.82442e-07
4.82332e-07
4.8223e-07
4.82135e-07
4.82047e-07
4.81967e-07
4.81894e-07
4.8183e-07
4.81773e-07
4.81723e-07
4.81678e-07
4.81635e-07
4.81593e-07
4.81551e-07
4.8151e-07
4.81471e-07
4.81438e-07
4.9359e-07
4.92363e-07
4.91332e-07
4.90457e-07
4.8971e-07
4.89068e-07
4.88513e-07
4.88028e-07
4.87602e-07
4.87226e-07
4.86894e-07
4.866e-07
4.86339e-07
4.86107e-07
4.859e-07
4.85714e-07
4.85546e-07
4.85394e-07
4.85256e-07
4.8513e-07
4.85015e-07
4.84909e-07
4.84812e-07
4.84721e-07
4.84638e-07
4.84562e-07
4.84494e-07
4.84433e-07
4.84381e-07
4.84334e-07
4.84292e-07
4.84252e-07
4.84213e-07
4.84173e-07
4.84134e-07
4.84095e-07
4.84061e-07
4.84032e-07
4.98914e-07
4.97788e-07
4.96843e-07
4.96041e-07
4.95356e-07
4.94768e-07
4.9426e-07
4.93817e-07
4.93428e-07
4.93085e-07
4.92782e-07
4.92514e-07
4.92277e-07
4.92067e-07
4.91879e-07
4.9171e-07
4.91557e-07
4.91419e-07
4.91294e-07
4.9118e-07
4.91076e-07
4.90981e-07
4.90893e-07
4.90812e-07
4.90738e-07
4.90671e-07
4.90611e-07
4.90559e-07
4.90514e-07
4.90474e-07
4.90437e-07
4.90402e-07
4.90368e-07
4.90332e-07
4.90297e-07
4.90262e-07
4.90232e-07
4.90206e-07
5.09493e-07
5.08554e-07
5.07764e-07
5.07095e-07
5.06525e-07
5.06034e-07
5.05609e-07
5.05239e-07
5.04914e-07
5.04628e-07
5.04375e-07
5.04152e-07
5.03954e-07
5.03778e-07
5.0362e-07
5.03479e-07
5.0335e-07
5.03235e-07
5.0313e-07
5.03035e-07
5.02949e-07
5.02869e-07
5.02796e-07
5.02729e-07
5.02669e-07
5.02616e-07
5.02569e-07
5.02528e-07
5.02493e-07
5.02463e-07
5.02435e-07
5.02409e-07
5.02382e-07
5.02356e-07
5.0233e-07
5.02305e-07
5.02284e-07
5.02268e-07
5.38939e-07
5.38131e-07
5.37443e-07
5.36853e-07
5.36342e-07
5.35898e-07
5.35506e-07
5.3516e-07
5.34852e-07
5.34579e-07
5.34335e-07
5.34118e-07
5.33923e-07
5.33747e-07
5.33589e-07
5.33445e-07
5.33315e-07
5.33196e-07
5.33088e-07
5.3299e-07
5.329e-07
5.32817e-07
5.3274e-07
5.32671e-07
5.3261e-07
5.32558e-07
5.32513e-07
5.32476e-07
5.32445e-07
5.32419e-07
5.32397e-07
5.32378e-07
5.32361e-07
5.32347e-07
5.32337e-07
5.3233e-07
5.32329e-07
5.32336e-07
7.85007e-07
7.81384e-07
7.78164e-07
7.75291e-07
7.72712e-07
7.70379e-07
7.68262e-07
7.66345e-07
7.64612e-07
7.63047e-07
7.61628e-07
7.60335e-07
7.59152e-07
7.58068e-07
7.57077e-07
7.56173e-07
7.55354e-07
7.5461e-07
7.53934e-07
7.5332e-07
7.52763e-07
7.52265e-07
7.51825e-07
7.51441e-07
7.51102e-07
7.508e-07
7.50524e-07
7.50269e-07
7.50033e-07
7.49816e-07
7.49621e-07
7.49458e-07
7.49338e-07
7.4927e-07
7.49264e-07
7.49292e-07
7.49369e-07
7.49486e-07
8.49423e-07
8.44967e-07
8.40994e-07
8.37435e-07
8.34238e-07
8.31357e-07
8.28755e-07
8.26397e-07
8.24256e-07
8.2231e-07
8.20541e-07
8.18934e-07
8.17482e-07
8.16174e-07
8.14992e-07
8.13917e-07
8.1294e-07
8.12051e-07
8.11246e-07
8.10518e-07
8.09863e-07
8.09278e-07
8.08762e-07
8.08308e-07
8.07905e-07
8.07543e-07
8.07217e-07
8.06927e-07
8.06672e-07
8.06453e-07
8.06268e-07
8.06121e-07
8.06013e-07
8.05944e-07
8.0591e-07
8.0591e-07
8.05926e-07
8.05964e-07
5.45767e-07
5.44751e-07
5.43893e-07
5.43162e-07
5.42533e-07
5.41987e-07
5.41511e-07
5.41092e-07
5.40722e-07
5.40393e-07
5.40099e-07
5.39837e-07
5.39603e-07
5.39395e-07
5.39209e-07
5.39043e-07
5.38894e-07
5.38759e-07
5.38637e-07
5.38525e-07
5.38423e-07
5.3833e-07
5.38243e-07
5.38165e-07
5.38096e-07
5.38037e-07
5.37986e-07
5.37942e-07
5.37903e-07
5.37869e-07
5.3784e-07
5.37813e-07
5.37788e-07
5.37767e-07
5.37749e-07
5.37737e-07
5.37731e-07
5.37731e-07
4.9514e-07
4.94068e-07
4.93186e-07
4.92454e-07
4.91841e-07
4.91322e-07
4.9088e-07
4.905e-07
4.90172e-07
4.89886e-07
4.89635e-07
4.89414e-07
4.89219e-07
4.89044e-07
4.88889e-07
4.88751e-07
4.88627e-07
4.88515e-07
4.88414e-07
4.88321e-07
4.88236e-07
4.88158e-07
4.88085e-07
4.88019e-07
4.87958e-07
4.87905e-07
4.87857e-07
4.87814e-07
4.87775e-07
4.87739e-07
4.87707e-07
4.87676e-07
4.87647e-07
4.87619e-07
4.87593e-07
4.8757e-07
4.87551e-07
4.87536e-07
4.74715e-07
4.7346e-07
4.72428e-07
4.71572e-07
4.70856e-07
4.7025e-07
4.69735e-07
4.69293e-07
4.68912e-07
4.6858e-07
4.6829e-07
4.68033e-07
4.67806e-07
4.67605e-07
4.67426e-07
4.67266e-07
4.67122e-07
4.66993e-07
4.66876e-07
4.66768e-07
4.6667e-07
4.66579e-07
4.66496e-07
4.66419e-07
4.66349e-07
4.66284e-07
4.66226e-07
4.66173e-07
4.66125e-07
4.66081e-07
4.66041e-07
4.66003e-07
4.65966e-07
4.65932e-07
4.65898e-07
4.65867e-07
4.65839e-07
4.65815e-07
4.64884e-07
4.63515e-07
4.62388e-07
4.61451e-07
4.60666e-07
4.60001e-07
4.59435e-07
4.5895e-07
4.5853e-07
4.58164e-07
4.57843e-07
4.57559e-07
4.57309e-07
4.57086e-07
4.56889e-07
4.56712e-07
4.56555e-07
4.56413e-07
4.56284e-07
4.56166e-07
4.56058e-07
4.55959e-07
4.55868e-07
4.55784e-07
4.55706e-07
4.55635e-07
4.55569e-07
4.55509e-07
4.55455e-07
4.55406e-07
4.55361e-07
4.55319e-07
4.5528e-07
4.55241e-07
4.55204e-07
4.55168e-07
4.55134e-07
4.55104e-07
4.59451e-07
4.58281e-07
4.57307e-07
4.5649e-07
4.55798e-07
4.55207e-07
4.54701e-07
4.54262e-07
4.53879e-07
4.53544e-07
4.53247e-07
4.52985e-07
4.52753e-07
4.52547e-07
4.52363e-07
4.52199e-07
4.52052e-07
4.51918e-07
4.51796e-07
4.51685e-07
4.51582e-07
4.51488e-07
4.51401e-07
4.51321e-07
4.51246e-07
4.51176e-07
4.51113e-07
4.51056e-07
4.51005e-07
4.5096e-07
4.50917e-07
4.50877e-07
4.50838e-07
4.50799e-07
4.50761e-07
4.50724e-07
4.5069e-07
4.59455e-07
4.58284e-07
4.57309e-07
4.56489e-07
4.55795e-07
4.55203e-07
4.54695e-07
4.54254e-07
4.53871e-07
4.53534e-07
4.53236e-07
4.52974e-07
4.52742e-07
4.52537e-07
4.52354e-07
4.5219e-07
4.52043e-07
4.5191e-07
4.51789e-07
4.51679e-07
4.51578e-07
4.51484e-07
4.51398e-07
4.51318e-07
4.51243e-07
4.51174e-07
4.51112e-07
4.51056e-07
4.51006e-07
4.50962e-07
4.50921e-07
4.50882e-07
4.50844e-07
4.50805e-07
4.50766e-07
4.50728e-07
4.50693e-07
4.63527e-07
4.62397e-07
4.61455e-07
4.60664e-07
4.59994e-07
4.59423e-07
4.58933e-07
4.58508e-07
4.58139e-07
4.57814e-07
4.57529e-07
4.57278e-07
4.57056e-07
4.5686e-07
4.56685e-07
4.56529e-07
4.56388e-07
4.56262e-07
4.56147e-07
4.56042e-07
4.55945e-07
4.55857e-07
4.55775e-07
4.55699e-07
4.55628e-07
4.55563e-07
4.55505e-07
4.55453e-07
4.55407e-07
4.55367e-07
4.5533e-07
4.55294e-07
4.55259e-07
4.55222e-07
4.55184e-07
4.55147e-07
4.55111e-07
4.55078e-07
4.73475e-07
4.72439e-07
4.71577e-07
4.70853e-07
4.7024e-07
4.69718e-07
4.6927e-07
4.68883e-07
4.68546e-07
4.68251e-07
4.67991e-07
4.67763e-07
4.67563e-07
4.67385e-07
4.67228e-07
4.67087e-07
4.6696e-07
4.66845e-07
4.66741e-07
4.66647e-07
4.6656e-07
4.66481e-07
4.66407e-07
4.66338e-07
4.66276e-07
4.66219e-07
4.66168e-07
4.66123e-07
4.66085e-07
4.66051e-07
4.6602e-07
4.6599e-07
4.65959e-07
4.65927e-07
4.65893e-07
4.65858e-07
4.65825e-07
4.65795e-07
4.9408e-07
4.93194e-07
4.92456e-07
4.91836e-07
4.91311e-07
4.90864e-07
4.90479e-07
4.90146e-07
4.89856e-07
4.89601e-07
4.89378e-07
4.89182e-07
4.89008e-07
4.88855e-07
4.88719e-07
4.88597e-07
4.88487e-07
4.88388e-07
4.88298e-07
4.88217e-07
4.88143e-07
4.88074e-07
4.88009e-07
4.8795e-07
4.87897e-07
4.8785e-07
4.87809e-07
4.87774e-07
4.87745e-07
4.8772e-07
4.87698e-07
4.87676e-07
4.87653e-07
4.87627e-07
4.876e-07
4.87573e-07
4.87547e-07
4.87525e-07
5.44737e-07
5.43877e-07
5.43146e-07
5.42519e-07
5.41977e-07
5.41503e-07
5.41086e-07
5.40718e-07
5.40391e-07
5.40102e-07
5.39844e-07
5.39613e-07
5.39405e-07
5.39218e-07
5.39053e-07
5.38905e-07
5.3877e-07
5.38648e-07
5.38537e-07
5.38436e-07
5.38344e-07
5.38257e-07
5.38176e-07
5.38102e-07
5.38038e-07
5.37983e-07
5.37937e-07
5.37901e-07
5.37872e-07
5.3785e-07
5.37831e-07
5.37815e-07
5.37796e-07
5.37778e-07
5.3776e-07
5.37745e-07
5.37734e-07
5.37731e-07
8.44712e-07
8.4074e-07
8.37216e-07
8.34076e-07
8.31253e-07
8.28695e-07
8.26373e-07
8.24272e-07
8.22376e-07
8.20665e-07
8.19112e-07
8.17694e-07
8.16396e-07
8.15203e-07
8.14127e-07
8.1315e-07
8.12266e-07
8.11464e-07
8.10736e-07
8.10074e-07
8.09476e-07
8.08942e-07
8.08471e-07
8.08059e-07
8.07695e-07
8.07368e-07
8.07066e-07
8.06787e-07
8.06528e-07
8.06288e-07
8.06071e-07
8.0589e-07
8.05753e-07
8.05673e-07
8.05656e-07
8.05681e-07
8.05754e-07
8.05868e-07
8.89697e-07
8.84893e-07
8.80616e-07
8.76787e-07
8.73351e-07
8.70258e-07
8.67467e-07
8.64939e-07
8.62646e-07
8.60564e-07
8.58675e-07
8.56959e-07
8.55406e-07
8.54003e-07
8.52736e-07
8.51589e-07
8.50553e-07
8.49613e-07
8.48762e-07
8.47991e-07
8.47297e-07
8.46677e-07
8.4613e-07
8.45648e-07
8.45219e-07
8.44833e-07
8.44486e-07
8.44178e-07
8.43907e-07
8.43672e-07
8.43474e-07
8.43313e-07
8.43192e-07
8.43111e-07
8.43066e-07
8.43058e-07
8.43068e-07
8.43093e-07
5.49892e-07
5.48785e-07
5.47852e-07
5.47057e-07
5.46374e-07
5.45783e-07
5.45267e-07
5.44814e-07
5.44414e-07
5.44059e-07
5.43743e-07
5.43461e-07
5.43208e-07
5.42981e-07
5.42779e-07
5.42599e-07
5.4244e-07
5.42297e-07
5.42167e-07
5.42048e-07
5.41939e-07
5.41838e-07
5.41744e-07
5.41658e-07
5.41583e-07
5.41519e-07
5.41463e-07
5.41413e-07
5.4137e-07
5.41333e-07
5.413e-07
5.4127e-07
5.41242e-07
5.41217e-07
5.41197e-07
5.41184e-07
5.41178e-07
5.41177e-07
4.84899e-07
4.83843e-07
4.82981e-07
4.82268e-07
4.81675e-07
4.81176e-07
4.80754e-07
4.80393e-07
4.80082e-07
4.79813e-07
4.79579e-07
4.79372e-07
4.7919e-07
4.79029e-07
4.78885e-07
4.78758e-07
4.78644e-07
4.78541e-07
4.78448e-07
4.78363e-07
4.78285e-07
4.78213e-07
4.78146e-07
4.78084e-07
4.78028e-07
4.77978e-07
4.77933e-07
4.77893e-07
4.77857e-07
4.77824e-07
4.77794e-07
4.77765e-07
4.77737e-07
4.77711e-07
4.77687e-07
4.77665e-07
4.77648e-07
4.77633e-07
4.57283e-07
4.56085e-07
4.55107e-07
4.54302e-07
4.53633e-07
4.53072e-07
4.52597e-07
4.52193e-07
4.51847e-07
4.51547e-07
4.51287e-07
4.51058e-07
4.50857e-07
4.50679e-07
4.50521e-07
4.50381e-07
4.50255e-07
4.50142e-07
4.5004e-07
4.49947e-07
4.49861e-07
4.49782e-07
4.49709e-07
4.49642e-07
4.49581e-07
4.49525e-07
4.49473e-07
4.49427e-07
4.49384e-07
4.49346e-07
4.4931e-07
4.49276e-07
4.49243e-07
4.49212e-07
4.49182e-07
4.49154e-07
4.49128e-07
4.49106e-07
4.43921e-07
4.42621e-07
4.41559e-07
4.40682e-07
4.39953e-07
4.3934e-07
4.38821e-07
4.38379e-07
4.37999e-07
4.37671e-07
4.37384e-07
4.37133e-07
4.36912e-07
4.36716e-07
4.36543e-07
4.36389e-07
4.36252e-07
4.36128e-07
4.36017e-07
4.35915e-07
4.35822e-07
4.35737e-07
4.35658e-07
4.35585e-07
4.35518e-07
4.35456e-07
4.35399e-07
4.35347e-07