/*--------------------------------*- C++ -*----------------------------------*\
| =========                 |                                                 |
| \\      /  F ield         | OpenFOAM: The Open Source CFD Toolbox           |
|  \\    /   O peration     | Version:  2.3.1                                 |
|   \\  /    A nd           | Web:      www.OpenFOAM.org                      |
|    \\/     M anipulation  |                                                 |
\*---------------------------------------------------------------------------*/
FoamFile
{
    version     2.0;
    format      ascii;
    class       volScalarField;
    location    "15";
    object      k;
}
// * * * * * * * * * * * * * * * * * * * * * * * * * * * * * * * * * * * * * //

dimensions      [0 2 -2 0 0 0 0];

internalField   nonuniform List<scalar> 
38262
(
4.14494e-06
4.10359e-06
4.06695e-06
4.03432e-06
4.00515e-06
3.97899e-06
3.95543e-06
3.93416e-06
3.9149e-06
3.89741e-06
3.88151e-06
3.86703e-06
3.85384e-06
3.84184e-06
3.83091e-06
3.82095e-06
3.81186e-06
3.80358e-06
3.79603e-06
3.78915e-06
3.7829e-06
3.77726e-06
3.7722e-06
3.76768e-06
3.76365e-06
3.76007e-06
3.75688e-06
3.75404e-06
3.75152e-06
3.74929e-06
3.74735e-06
3.74569e-06
3.74433e-06
3.74325e-06
3.74251e-06
3.74208e-06
3.74195e-06
3.742e-06
5.73972e-06
5.69753e-06
5.66004e-06
5.62662e-06
5.59673e-06
5.5699e-06
5.54574e-06
5.52392e-06
5.50415e-06
5.4862e-06
5.46989e-06
5.45508e-06
5.44166e-06
5.4295e-06
5.41845e-06
5.40839e-06
5.39922e-06
5.39089e-06
5.38334e-06
5.37652e-06
5.3704e-06
5.36497e-06
5.36019e-06
5.35597e-06
5.35223e-06
5.3489e-06
5.34591e-06
5.34321e-06
5.34081e-06
5.33874e-06
5.33702e-06
5.33568e-06
5.33473e-06
5.33418e-06
5.33402e-06
5.33411e-06
5.33448e-06
5.33507e-06
6.46489e-06
6.42716e-06
6.39359e-06
6.36361e-06
6.33676e-06
6.31265e-06
6.29094e-06
6.27133e-06
6.25357e-06
6.23743e-06
6.22279e-06
6.20955e-06
6.1976e-06
6.1868e-06
6.17701e-06
6.16807e-06
6.15993e-06
6.15256e-06
6.1459e-06
6.13991e-06
6.13457e-06
6.12986e-06
6.12572e-06
6.12209e-06
6.11889e-06
6.11607e-06
6.11356e-06
6.11131e-06
6.10934e-06
6.10766e-06
6.10632e-06
6.1053e-06
6.10462e-06
6.10433e-06
6.10434e-06
6.10464e-06
6.1052e-06
6.10589e-06
6.80338e-06
6.76829e-06
6.73701e-06
6.709e-06
6.68389e-06
6.66133e-06
6.64102e-06
6.62267e-06
6.60604e-06
6.59095e-06
6.57731e-06
6.56503e-06
6.554e-06
6.54404e-06
6.53498e-06
6.52669e-06
6.51914e-06
6.51229e-06
6.5061e-06
6.50054e-06
6.4956e-06
6.49126e-06
6.48745e-06
6.4841e-06
6.48118e-06
6.47866e-06
6.47647e-06
6.47455e-06
6.47288e-06
6.47148e-06
6.47033e-06
6.46944e-06
6.46884e-06
6.46863e-06
6.46872e-06
6.46914e-06
6.46982e-06
6.47064e-06
6.94708e-06
6.91319e-06
6.88295e-06
6.85588e-06
6.83161e-06
6.8098e-06
6.79014e-06
6.77237e-06
6.75626e-06
6.74169e-06
6.72858e-06
6.71683e-06
6.70627e-06
6.69672e-06
6.68802e-06
6.68006e-06
6.67279e-06
6.66618e-06
6.66018e-06
6.65477e-06
6.64998e-06
6.64577e-06
6.64205e-06
6.63876e-06
6.63593e-06
6.63355e-06
6.63156e-06
6.62987e-06
6.62842e-06
6.62716e-06
6.62608e-06
6.62517e-06
6.62452e-06
6.62427e-06
6.62434e-06
6.62478e-06
6.62554e-06
6.62648e-06
6.9636e-06
6.93373e-06
6.90705e-06
6.88317e-06
6.86172e-06
6.84236e-06
6.82482e-06
6.80895e-06
6.79464e-06
6.78181e-06
6.77031e-06
6.75996e-06
6.75058e-06
6.74201e-06
6.73418e-06
6.72702e-06
6.72049e-06
6.71453e-06
6.70915e-06
6.70438e-06
6.70017e-06
6.69643e-06
6.69312e-06
6.69028e-06
6.68794e-06
6.68605e-06
6.68449e-06
6.68315e-06
6.68194e-06
6.68083e-06
6.67984e-06
6.67909e-06
6.67873e-06
6.67876e-06
6.67915e-06
6.67996e-06
6.68101e-06
6.96313e-06
6.93325e-06
6.90665e-06
6.88291e-06
6.8616e-06
6.84235e-06
6.8249e-06
6.80912e-06
6.79493e-06
6.7822e-06
6.77079e-06
6.76049e-06
6.75111e-06
6.74254e-06
6.73468e-06
6.72752e-06
6.72098e-06
6.71502e-06
6.70962e-06
6.70481e-06
6.70054e-06
6.69674e-06
6.69338e-06
6.69052e-06
6.68817e-06
6.68626e-06
6.6847e-06
6.68336e-06
6.68211e-06
6.6809e-06
6.6798e-06
6.67894e-06
6.67846e-06
6.67844e-06
6.67878e-06
6.67961e-06
6.68073e-06
6.91193e-06
6.88168e-06
6.85481e-06
6.8309e-06
6.80947e-06
6.79012e-06
6.77259e-06
6.75673e-06
6.74245e-06
6.72965e-06
6.71815e-06
6.70774e-06
6.69823e-06
6.68949e-06
6.68148e-06
6.67417e-06
6.66755e-06
6.66154e-06
6.65609e-06
6.6512e-06
6.64683e-06
6.64294e-06
6.63953e-06
6.63662e-06
6.63418e-06
6.63217e-06
6.63049e-06
6.62901e-06
6.62763e-06
6.62629e-06
6.62507e-06
6.62409e-06
6.6235e-06
6.62342e-06
6.62371e-06
6.62452e-06
6.62567e-06
6.62714e-06
6.76655e-06
6.73526e-06
6.70751e-06
6.68286e-06
6.66081e-06
6.64091e-06
6.62288e-06
6.60658e-06
6.59188e-06
6.57868e-06
6.5668e-06
6.55603e-06
6.54616e-06
6.53707e-06
6.52871e-06
6.52111e-06
6.51426e-06
6.50808e-06
6.50247e-06
6.4974e-06
6.49285e-06
6.4888e-06
6.48526e-06
6.48222e-06
6.47962e-06
6.4774e-06
6.47548e-06
6.47377e-06
6.47218e-06
6.47066e-06
6.46929e-06
6.46816e-06
6.46744e-06
6.46727e-06
6.4675e-06
6.46822e-06
6.46934e-06
6.47085e-06
6.42525e-06
6.39166e-06
6.3619e-06
6.33546e-06
6.31182e-06
6.29052e-06
6.27124e-06
6.25379e-06
6.23806e-06
6.22391e-06
6.21115e-06
6.19956e-06
6.18894e-06
6.17916e-06
6.17018e-06
6.16201e-06
6.15465e-06
6.14803e-06
6.14203e-06
6.13658e-06
6.13167e-06
6.12729e-06
6.12345e-06
6.12012e-06
6.11723e-06
6.11471e-06
6.11246e-06
6.11042e-06
6.10853e-06
6.10677e-06
6.10517e-06
6.10385e-06
6.10294e-06
6.10259e-06
6.10268e-06
6.10321e-06
6.10421e-06
6.10565e-06
5.69563e-06
5.65803e-06
5.62467e-06
5.59502e-06
5.5685e-06
5.54461e-06
5.52299e-06
5.50344e-06
5.48581e-06
5.46992e-06
5.45557e-06
5.44254e-06
5.43062e-06
5.41968e-06
5.40964e-06
5.4005e-06
5.39225e-06
5.38481e-06
5.37808e-06
5.37199e-06
5.36647e-06
5.36154e-06
5.35719e-06
5.3534e-06
5.35011e-06
5.3472e-06
5.34458e-06
5.34217e-06
5.33993e-06
5.33783e-06
5.33593e-06
5.3343e-06
5.33308e-06
5.33236e-06
5.33221e-06
5.33242e-06
5.33312e-06
5.33437e-06
4.10235e-06
4.06551e-06
4.03276e-06
4.00357e-06
3.97746e-06
3.95401e-06
3.93286e-06
3.91374e-06
3.89644e-06
3.88078e-06
3.8666e-06
3.85374e-06
3.84203e-06
3.83136e-06
3.82159e-06
3.81266e-06
3.80451e-06
3.79707e-06
3.7903e-06
3.78413e-06
3.77852e-06
3.77343e-06
3.76885e-06
3.76475e-06
3.76112e-06
3.75791e-06
3.75505e-06
3.75249e-06
3.75018e-06
3.74808e-06
3.74618e-06
3.74448e-06
3.74303e-06
3.74188e-06
3.74105e-06
3.74069e-06
3.7407e-06
3.74108e-06
6.23851e-06
6.21566e-06
6.19519e-06
6.17678e-06
6.16017e-06
6.14514e-06
6.13147e-06
6.11903e-06
6.10768e-06
6.0973e-06
6.08782e-06
6.07915e-06
6.07127e-06
6.06411e-06
6.05761e-06
6.0517e-06
6.04633e-06
6.04145e-06
6.03702e-06
6.03302e-06
6.02942e-06
6.02623e-06
6.02344e-06
6.02099e-06
6.01883e-06
6.01691e-06
6.01521e-06
6.01369e-06
6.01237e-06
6.01125e-06
6.01034e-06
6.00966e-06
6.0092e-06
6.00897e-06
6.00891e-06
6.00898e-06
6.00916e-06
6.00944e-06
9.1035e-06
9.12395e-06
9.14147e-06
9.15663e-06
9.16986e-06
9.18143e-06
9.19159e-06
9.20052e-06
9.20841e-06
9.21541e-06
9.22167e-06
9.22736e-06
9.23264e-06
9.23753e-06
9.24204e-06
9.24616e-06
9.24995e-06
9.2535e-06
9.25687e-06
9.26008e-06
9.26321e-06
9.26632e-06
9.26939e-06
9.27233e-06
9.27503e-06
9.27743e-06
9.2795e-06
9.28128e-06
9.28288e-06
9.28447e-06
9.28614e-06
9.28796e-06
9.28995e-06
9.29209e-06
9.29428e-06
9.29637e-06
9.2982e-06
9.29972e-06
1.08195e-05
1.08466e-05
1.08701e-05
1.08904e-05
1.09082e-05
1.09239e-05
1.09378e-05
1.09501e-05
1.09611e-05
1.09708e-05
1.09796e-05
1.09877e-05
1.09953e-05
1.10022e-05
1.10085e-05
1.10142e-05
1.10195e-05
1.10244e-05
1.10291e-05
1.10335e-05
1.10378e-05
1.10419e-05
1.10459e-05
1.10497e-05
1.10532e-05
1.10564e-05
1.10592e-05
1.10618e-05
1.10641e-05
1.10663e-05
1.10685e-05
1.10708e-05
1.10732e-05
1.10758e-05
1.10783e-05
1.10808e-05
1.1083e-05
1.10849e-05
1.16594e-05
1.16893e-05
1.17151e-05
1.17375e-05
1.17572e-05
1.17745e-05
1.17899e-05
1.18036e-05
1.18157e-05
1.18267e-05
1.18367e-05
1.1846e-05
1.18546e-05
1.18624e-05
1.18696e-05
1.1876e-05
1.18818e-05
1.18873e-05
1.18924e-05
1.18973e-05
1.19019e-05
1.19065e-05
1.19108e-05
1.19148e-05
1.19187e-05
1.19223e-05
1.19256e-05
1.19286e-05
1.19314e-05
1.19339e-05
1.19364e-05
1.19388e-05
1.19413e-05
1.19439e-05
1.19466e-05
1.19493e-05
1.19518e-05
1.1954e-05
1.20373e-05
1.20683e-05
1.20951e-05
1.21185e-05
1.2139e-05
1.21571e-05
1.21732e-05
1.21874e-05
1.22002e-05
1.22118e-05
1.22225e-05
1.22324e-05
1.22415e-05
1.22498e-05
1.22573e-05
1.22641e-05
1.22702e-05
1.22759e-05
1.22811e-05
1.2286e-05
1.22908e-05
1.22954e-05
1.22997e-05
1.23038e-05
1.23078e-05
1.23116e-05
1.23153e-05
1.23187e-05
1.23217e-05
1.23245e-05
1.23269e-05
1.23293e-05
1.23316e-05
1.23342e-05
1.23369e-05
1.23397e-05
1.23425e-05
1.23449e-05
1.22084e-05
1.22356e-05
1.22595e-05
1.22805e-05
1.22991e-05
1.23155e-05
1.233e-05
1.23431e-05
1.2355e-05
1.23661e-05
1.23763e-05
1.23857e-05
1.23942e-05
1.24018e-05
1.24086e-05
1.24148e-05
1.24205e-05
1.24257e-05
1.24306e-05
1.24353e-05
1.24398e-05
1.24441e-05
1.24481e-05
1.24521e-05
1.2456e-05
1.24598e-05
1.24634e-05
1.24666e-05
1.24694e-05
1.24717e-05
1.24739e-05
1.24761e-05
1.24785e-05
1.24812e-05
1.24841e-05
1.2487e-05
1.24897e-05
1.22076e-05
1.2235e-05
1.22591e-05
1.22804e-05
1.22993e-05
1.23159e-05
1.23306e-05
1.23439e-05
1.2356e-05
1.23673e-05
1.23776e-05
1.2387e-05
1.23954e-05
1.24029e-05
1.24097e-05
1.24159e-05
1.24215e-05
1.24266e-05
1.24314e-05
1.2436e-05
1.24404e-05
1.24445e-05
1.24485e-05
1.24524e-05
1.24563e-05
1.24601e-05
1.24637e-05
1.24668e-05
1.24695e-05
1.24717e-05
1.24736e-05
1.24756e-05
1.24779e-05
1.24805e-05
1.24834e-05
1.24865e-05
1.24894e-05
1.20663e-05
1.20934e-05
1.21175e-05
1.21389e-05
1.21578e-05
1.21745e-05
1.21892e-05
1.22025e-05
1.22146e-05
1.22258e-05
1.2236e-05
1.22452e-05
1.22534e-05
1.22606e-05
1.22671e-05
1.22731e-05
1.22786e-05
1.22837e-05
1.22884e-05
1.22928e-05
1.2297e-05
1.2301e-05
1.23048e-05
1.23086e-05
1.23124e-05
1.2316e-05
1.23193e-05
1.23223e-05
1.23247e-05
1.23267e-05
1.23284e-05
1.23302e-05
1.23324e-05
1.2335e-05
1.23379e-05
1.2341e-05
1.23441e-05
1.23469e-05
1.16867e-05
1.17129e-05
1.17363e-05
1.17571e-05
1.17756e-05
1.17918e-05
1.18062e-05
1.1819e-05
1.18307e-05
1.18414e-05
1.18512e-05
1.18599e-05
1.18677e-05
1.18744e-05
1.18805e-05
1.18861e-05
1.18913e-05
1.18962e-05
1.19007e-05
1.19049e-05
1.19088e-05
1.19126e-05
1.19163e-05
1.19199e-05
1.19234e-05
1.19266e-05
1.19296e-05
1.19321e-05
1.19342e-05
1.19359e-05
1.19374e-05
1.1939e-05
1.1941e-05
1.19435e-05
1.19464e-05
1.19496e-05
1.19527e-05
1.19556e-05
1.08439e-05
1.08679e-05
1.08892e-05
1.09082e-05
1.09251e-05
1.09399e-05
1.09529e-05
1.09645e-05
1.0975e-05
1.09847e-05
1.09934e-05
1.10012e-05
1.10081e-05
1.1014e-05
1.10193e-05
1.10242e-05
1.10289e-05
1.10333e-05
1.10373e-05
1.10411e-05
1.10446e-05
1.1048e-05
1.10513e-05
1.10545e-05
1.10575e-05
1.10603e-05
1.10627e-05
1.10648e-05
1.10664e-05
1.10678e-05
1.1069e-05
1.10704e-05
1.10722e-05
1.10745e-05
1.10772e-05
1.10802e-05
1.10832e-05
1.10861e-05
9.1216e-06
9.13954e-06
9.15548e-06
9.16969e-06
9.1822e-06
9.19306e-06
9.2025e-06
9.21089e-06
9.21852e-06
9.2255e-06
9.23181e-06
9.2374e-06
9.24224e-06
9.24641e-06
9.25009e-06
9.25351e-06
9.25683e-06
9.26002e-06
9.26301e-06
9.26577e-06
9.26836e-06
9.27087e-06
9.2734e-06
9.27592e-06
9.27833e-06
9.28047e-06
9.28224e-06
9.28363e-06
9.28467e-06
9.28548e-06
9.28621e-06
9.28712e-06
9.28845e-06
9.29033e-06
9.29265e-06
9.29526e-06
9.29788e-06
9.30035e-06
6.2142e-06
6.19373e-06
6.17547e-06
6.15912e-06
6.1444e-06
6.13103e-06
6.11885e-06
6.10779e-06
6.09776e-06
6.08868e-06
6.08043e-06
6.0729e-06
6.06599e-06
6.05963e-06
6.05379e-06
6.04844e-06
6.04356e-06
6.03912e-06
6.03507e-06
6.03137e-06
6.028e-06
6.02497e-06
6.02228e-06
6.01993e-06
6.01786e-06
6.01601e-06
6.01433e-06
6.01279e-06
6.01138e-06
6.01011e-06
6.009e-06
6.00811e-06
6.00751e-06
6.00728e-06
6.00737e-06
6.00771e-06
6.00826e-06
6.00897e-06
7.26902e-06
7.244e-06
7.22161e-06
7.20152e-06
7.18341e-06
7.16706e-06
7.15224e-06
7.13878e-06
7.12652e-06
7.11534e-06
7.10514e-06
7.09585e-06
7.08739e-06
7.07972e-06
7.07275e-06
7.0664e-06
7.06062e-06
7.05537e-06
7.05061e-06
7.0463e-06
7.04243e-06
7.03899e-06
7.03595e-06
7.03329e-06
7.03093e-06
7.02883e-06
7.02695e-06
7.02527e-06
7.0238e-06
7.02255e-06
7.02151e-06
7.02071e-06
7.02015e-06
7.01983e-06
7.01973e-06
7.01978e-06
7.01997e-06
7.02029e-06
1.14248e-05
1.14432e-05
1.14592e-05
1.14731e-05
1.14853e-05
1.14961e-05
1.15056e-05
1.1514e-05
1.15214e-05
1.15281e-05
1.15341e-05
1.15396e-05
1.15446e-05
1.15494e-05
1.15537e-05
1.15577e-05
1.15613e-05
1.15647e-05
1.1568e-05
1.1571e-05
1.1574e-05
1.1577e-05
1.15799e-05
1.15827e-05
1.15853e-05
1.15875e-05
1.15895e-05
1.15911e-05
1.15927e-05
1.15941e-05
1.15957e-05
1.15973e-05
1.15991e-05
1.1601e-05
1.1603e-05
1.16049e-05
1.16066e-05
1.1608e-05
1.35692e-05
1.35926e-05
1.36131e-05
1.36312e-05
1.36473e-05
1.36615e-05
1.36743e-05
1.36857e-05
1.36959e-05
1.37051e-05
1.37134e-05
1.37211e-05
1.37282e-05
1.37348e-05
1.37408e-05
1.37463e-05
1.37514e-05
1.37561e-05
1.37605e-05
1.37646e-05
1.37687e-05
1.37725e-05
1.37762e-05
1.37797e-05
1.3783e-05
1.3786e-05
1.37887e-05
1.3791e-05
1.37932e-05
1.37953e-05
1.37973e-05
1.37994e-05
1.38015e-05
1.38037e-05
1.38059e-05
1.38081e-05
1.381e-05
1.38117e-05
1.46325e-05
1.46575e-05
1.46795e-05
1.46989e-05
1.47163e-05
1.47317e-05
1.47456e-05
1.47581e-05
1.47693e-05
1.47795e-05
1.47888e-05
1.47975e-05
1.48055e-05
1.48128e-05
1.48195e-05
1.48256e-05
1.48312e-05
1.48364e-05
1.48412e-05
1.48458e-05
1.48501e-05
1.48543e-05
1.48583e-05
1.48621e-05
1.48656e-05
1.48689e-05
1.4872e-05
1.48747e-05
1.48773e-05
1.48796e-05
1.48819e-05
1.48841e-05
1.48863e-05
1.48885e-05
1.48909e-05
1.48932e-05
1.48953e-05
1.48973e-05
1.51287e-05
1.51543e-05
1.5177e-05
1.51971e-05
1.52151e-05
1.52313e-05
1.52457e-05
1.52587e-05
1.52705e-05
1.52812e-05
1.52911e-05
1.53003e-05
1.53087e-05
1.53165e-05
1.53235e-05
1.53299e-05
1.53358e-05
1.53411e-05
1.53461e-05
1.53508e-05
1.53553e-05
1.53596e-05
1.53636e-05
1.53674e-05
1.53711e-05
1.53746e-05
1.53779e-05
1.53809e-05
1.53837e-05
1.53862e-05
1.53885e-05
1.53907e-05
1.53928e-05
1.53951e-05
1.53974e-05
1.53998e-05
1.54022e-05
1.54043e-05
1.53454e-05
1.53684e-05
1.53889e-05
1.54073e-05
1.54238e-05
1.54386e-05
1.54519e-05
1.54639e-05
1.54749e-05
1.54852e-05
1.54946e-05
1.55033e-05
1.55112e-05
1.55184e-05
1.55249e-05
1.55308e-05
1.55363e-05
1.55413e-05
1.5546e-05
1.55504e-05
1.55547e-05
1.55587e-05
1.55625e-05
1.55661e-05
1.55697e-05
1.55732e-05
1.55764e-05
1.55793e-05
1.55818e-05
1.5584e-05
1.55861e-05
1.55881e-05
1.55903e-05
1.55926e-05
1.55951e-05
1.55976e-05
1.55999e-05
1.53448e-05
1.53679e-05
1.53886e-05
1.54072e-05
1.5424e-05
1.54389e-05
1.54523e-05
1.54645e-05
1.54757e-05
1.5486e-05
1.54956e-05
1.55043e-05
1.55122e-05
1.55193e-05
1.55257e-05
1.55316e-05
1.5537e-05
1.55419e-05
1.55466e-05
1.5551e-05
1.55551e-05
1.5559e-05
1.55627e-05
1.55664e-05
1.55699e-05
1.55733e-05
1.55765e-05
1.55794e-05
1.55818e-05
1.5584e-05
1.55859e-05
1.55878e-05
1.55898e-05
1.55921e-05
1.55946e-05
1.55972e-05
1.55997e-05
1.51529e-05
1.51758e-05
1.51964e-05
1.5215e-05
1.52317e-05
1.52467e-05
1.52601e-05
1.52722e-05
1.52833e-05
1.52935e-05
1.53029e-05
1.53115e-05
1.53192e-05
1.5326e-05
1.53322e-05
1.53379e-05
1.53432e-05
1.5348e-05
1.53525e-05
1.53568e-05
1.53608e-05
1.53646e-05
1.53682e-05
1.53717e-05
1.53751e-05
1.53784e-05
1.53814e-05
1.53841e-05
1.53864e-05
1.53883e-05
1.539e-05
1.53918e-05
1.53937e-05
1.53959e-05
1.53984e-05
1.54011e-05
1.54037e-05
1.54062e-05
1.46555e-05
1.46778e-05
1.4698e-05
1.47162e-05
1.47325e-05
1.47471e-05
1.47601e-05
1.47718e-05
1.47825e-05
1.47924e-05
1.48014e-05
1.48095e-05
1.48168e-05
1.48232e-05
1.4829e-05
1.48344e-05
1.48394e-05
1.4844e-05
1.48483e-05
1.48523e-05
1.48561e-05
1.48597e-05
1.48632e-05
1.48665e-05
1.48697e-05
1.48727e-05
1.48754e-05
1.48778e-05
1.48798e-05
1.48814e-05
1.48829e-05
1.48845e-05
1.48863e-05
1.48884e-05
1.48909e-05
1.48935e-05
1.48962e-05
1.48988e-05
1.35905e-05
1.36114e-05
1.36302e-05
1.36472e-05
1.36624e-05
1.36759e-05
1.36878e-05
1.36986e-05
1.37084e-05
1.37173e-05
1.37255e-05
1.37328e-05
1.37393e-05
1.37451e-05
1.37502e-05
1.37549e-05
1.37594e-05
1.37636e-05
1.37675e-05
1.37711e-05
1.37745e-05
1.37778e-05
1.37809e-05
1.3784e-05
1.37869e-05
1.37895e-05
1.37918e-05
1.37938e-05
1.37954e-05
1.37967e-05
1.37979e-05
1.37991e-05
1.38007e-05
1.38027e-05
1.38051e-05
1.38076e-05
1.38102e-05
1.38128e-05
1.14411e-05
1.14575e-05
1.14721e-05
1.14852e-05
1.14967e-05
1.15069e-05
1.15157e-05
1.15236e-05
1.15308e-05
1.15374e-05
1.15433e-05
1.15486e-05
1.15532e-05
1.15573e-05
1.15608e-05
1.15641e-05
1.15673e-05
1.15704e-05
1.15733e-05
1.15759e-05
1.15785e-05
1.1581e-05
1.15835e-05
1.1586e-05
1.15883e-05
1.15904e-05
1.15921e-05
1.15935e-05
1.15944e-05
1.15951e-05
1.15958e-05
1.15965e-05
1.15977e-05
1.15993e-05
1.16014e-05
1.16037e-05
1.16062e-05
1.16086e-05
7.24261e-06
7.2202e-06
7.20022e-06
7.18235e-06
7.16627e-06
7.1517e-06
7.13846e-06
7.12644e-06
7.11555e-06
7.1057e-06
7.09676e-06
7.08861e-06
7.08115e-06
7.07429e-06
7.068e-06
7.06225e-06
7.05702e-06
7.05228e-06
7.04796e-06
7.04403e-06
7.04045e-06
7.03725e-06
7.03441e-06
7.03193e-06
7.02975e-06
7.02781e-06
7.02604e-06
7.02442e-06
7.02292e-06
7.02156e-06
7.02035e-06
7.01934e-06
7.01862e-06
7.01825e-06
7.01826e-06
7.0185e-06
7.01904e-06
7.01983e-06
7.88699e-06
7.85992e-06
7.83575e-06
7.81407e-06
7.79457e-06
7.77698e-06
7.76106e-06
7.74663e-06
7.73351e-06
7.72157e-06
7.71069e-06
7.70079e-06
7.69179e-06
7.68364e-06
7.67623e-06
7.6695e-06
7.66336e-06
7.65778e-06
7.65272e-06
7.64815e-06
7.64403e-06
7.64036e-06
7.63713e-06
7.63428e-06
7.63176e-06
7.6295e-06
7.62748e-06
7.62567e-06
7.62408e-06
7.62272e-06
7.62159e-06
7.6207e-06
7.62006e-06
7.61967e-06
7.61951e-06
7.61955e-06
7.61971e-06
7.62002e-06
1.29485e-05
1.29617e-05
1.29733e-05
1.29834e-05
1.29924e-05
1.30004e-05
1.30075e-05
1.30138e-05
1.30194e-05
1.30245e-05
1.30291e-05
1.30333e-05
1.30372e-05
1.30409e-05
1.30443e-05
1.30474e-05
1.30503e-05
1.3053e-05
1.30555e-05
1.3058e-05
1.30604e-05
1.30629e-05
1.30653e-05
1.30677e-05
1.30698e-05
1.30717e-05
1.30733e-05
1.30747e-05
1.3076e-05
1.30772e-05
1.30785e-05
1.30799e-05
1.30814e-05
1.30831e-05
1.30848e-05
1.30865e-05
1.30879e-05
1.30892e-05
1.53539e-05
1.53711e-05
1.53865e-05
1.54004e-05
1.54129e-05
1.54241e-05
1.54343e-05
1.54435e-05
1.54518e-05
1.54593e-05
1.54662e-05
1.54726e-05
1.54786e-05
1.54841e-05
1.54891e-05
1.54938e-05
1.54981e-05
1.55021e-05
1.55059e-05
1.55094e-05
1.55128e-05
1.55162e-05
1.55193e-05
1.55224e-05
1.55252e-05
1.55277e-05
1.553e-05
1.55321e-05
1.5534e-05
1.55358e-05
1.55376e-05
1.55394e-05
1.55412e-05
1.55431e-05
1.55449e-05
1.55468e-05
1.55484e-05
1.55499e-05
1.65537e-05
1.65716e-05
1.65879e-05
1.66027e-05
1.66161e-05
1.66283e-05
1.66394e-05
1.66496e-05
1.66588e-05
1.66672e-05
1.6675e-05
1.66822e-05
1.66889e-05
1.66951e-05
1.67008e-05
1.67061e-05
1.67109e-05
1.67153e-05
1.67195e-05
1.67235e-05
1.67272e-05
1.67308e-05
1.67343e-05
1.67375e-05
1.67406e-05
1.67434e-05
1.6746e-05
1.67484e-05
1.67506e-05
1.67527e-05
1.67547e-05
1.67566e-05
1.67585e-05
1.67604e-05
1.67624e-05
1.67643e-05
1.67662e-05
1.67678e-05
1.7129e-05
1.71471e-05
1.71638e-05
1.7179e-05
1.71929e-05
1.72056e-05
1.72172e-05
1.72278e-05
1.72374e-05
1.72463e-05
1.72546e-05
1.72623e-05
1.72695e-05
1.7276e-05
1.72821e-05
1.72876e-05
1.72926e-05
1.72973e-05
1.73016e-05
1.73057e-05
1.73096e-05
1.73133e-05
1.73168e-05
1.73201e-05
1.73233e-05
1.73263e-05
1.73291e-05
1.73318e-05
1.73342e-05
1.73364e-05
1.73384e-05
1.73403e-05
1.73422e-05
1.73441e-05
1.73461e-05
1.73481e-05
1.73501e-05
1.7352e-05
1.73751e-05
1.73919e-05
1.74074e-05
1.74216e-05
1.74346e-05
1.74465e-05
1.74573e-05
1.74673e-05
1.74764e-05
1.7485e-05
1.74929e-05
1.75003e-05
1.7507e-05
1.75132e-05
1.75188e-05
1.75239e-05
1.75287e-05
1.7533e-05
1.75371e-05
1.7541e-05
1.75448e-05
1.75482e-05
1.75516e-05
1.75547e-05
1.75578e-05
1.75608e-05
1.75635e-05
1.7566e-05
1.75682e-05
1.75702e-05
1.75721e-05
1.75739e-05
1.75758e-05
1.75778e-05
1.75798e-05
1.75819e-05
1.75839e-05
1.73747e-05
1.73916e-05
1.74072e-05
1.74216e-05
1.74348e-05
1.74468e-05
1.74577e-05
1.74677e-05
1.7477e-05
1.74857e-05
1.74937e-05
1.75011e-05
1.75078e-05
1.75139e-05
1.75194e-05
1.75245e-05
1.75292e-05
1.75336e-05
1.75376e-05
1.75415e-05
1.75451e-05
1.75485e-05
1.75518e-05
1.75549e-05
1.7558e-05
1.75609e-05
1.75636e-05
1.75661e-05
1.75682e-05
1.75701e-05
1.75719e-05
1.75736e-05
1.75754e-05
1.75773e-05
1.75794e-05
1.75816e-05
1.75838e-05
1.7146e-05
1.71628e-05
1.71784e-05
1.71928e-05
1.7206e-05
1.72179e-05
1.72288e-05
1.72388e-05
1.7248e-05
1.72565e-05
1.72644e-05
1.72716e-05
1.72782e-05
1.72841e-05
1.72894e-05
1.72943e-05
1.72989e-05
1.73031e-05
1.73071e-05
1.73108e-05
1.73143e-05
1.73176e-05
1.73207e-05
1.73238e-05
1.73267e-05
1.73295e-05
1.73321e-05
1.73344e-05
1.73364e-05
1.73381e-05
1.73397e-05
1.73413e-05
1.7343e-05
1.73449e-05
1.7347e-05
1.73492e-05
1.73514e-05
1.73536e-05
1.657e-05
1.65866e-05
1.66019e-05
1.6616e-05
1.66289e-05
1.66406e-05
1.66511e-05
1.66608e-05
1.66696e-05
1.66778e-05
1.66854e-05
1.66922e-05
1.66983e-05
1.67039e-05
1.67089e-05
1.67135e-05
1.67178e-05
1.67218e-05
1.67255e-05
1.6729e-05
1.67323e-05
1.67354e-05
1.67384e-05
1.67413e-05
1.67441e-05
1.67466e-05
1.6749e-05
1.6751e-05
1.67527e-05
1.67542e-05
1.67556e-05
1.67569e-05
1.67585e-05
1.67603e-05
1.67624e-05
1.67646e-05
1.67669e-05
1.67691e-05
1.53693e-05
1.53851e-05
1.53996e-05
1.54128e-05
1.54249e-05
1.54356e-05
1.54453e-05
1.54541e-05
1.54621e-05
1.54695e-05
1.54763e-05
1.54824e-05
1.54879e-05
1.54927e-05
1.54971e-05
1.55011e-05
1.55049e-05
1.55085e-05
1.55118e-05
1.55149e-05
1.55178e-05
1.55206e-05
1.55234e-05
1.5526e-05
1.55285e-05
1.55308e-05
1.55328e-05
1.55344e-05
1.55358e-05
1.55369e-05
1.55379e-05
1.5539e-05
1.55404e-05
1.55421e-05
1.55441e-05
1.55463e-05
1.55486e-05
1.55508e-05
1.29598e-05
1.29717e-05
1.29825e-05
1.29923e-05
1.30011e-05
1.30087e-05
1.30155e-05
1.30215e-05
1.30271e-05
1.30322e-05
1.30368e-05
1.30409e-05
1.30445e-05
1.30476e-05
1.30504e-05
1.3053e-05
1.30555e-05
1.30579e-05
1.30601e-05
1.30623e-05
1.30643e-05
1.30664e-05
1.30685e-05
1.30706e-05
1.30726e-05
1.30743e-05
1.30757e-05
1.30767e-05
1.30774e-05
1.30778e-05
1.30782e-05
1.30787e-05
1.30797e-05
1.30811e-05
1.30829e-05
1.30851e-05
1.30873e-05
1.30895e-05
7.8585e-06
7.83429e-06
7.81274e-06
7.79349e-06
7.77618e-06
7.76051e-06
7.74629e-06
7.73339e-06
7.72172e-06
7.71117e-06
7.7016e-06
7.69288e-06
7.6849e-06
7.67758e-06
7.67088e-06
7.66477e-06
7.65923e-06
7.6542e-06
7.64963e-06
7.64547e-06
7.6417e-06
7.63832e-06
7.63535e-06
7.63274e-06
7.63045e-06
7.6284e-06
7.62653e-06
7.6248e-06
7.6232e-06
7.62173e-06
7.62041e-06
7.61931e-06
7.61849e-06
7.61803e-06
7.61799e-06
7.61818e-06
7.6187e-06
7.61949e-06
8.28284e-06
8.25383e-06
8.22793e-06
8.20469e-06
8.18378e-06
8.16492e-06
8.14786e-06
8.13239e-06
8.11833e-06
8.10554e-06
8.09391e-06
8.08333e-06
8.07376e-06
8.06515e-06
8.05735e-06
8.05027e-06
8.04382e-06
8.03795e-06
8.03264e-06
8.02783e-06
8.0235e-06
8.01963e-06
8.01622e-06
8.01322e-06
8.01055e-06
8.00816e-06
8.00601e-06
8.00409e-06
8.0024e-06
8.00095e-06
7.99973e-06
7.99876e-06
7.99804e-06
7.99758e-06
7.99736e-06
7.99735e-06
7.99746e-06
7.99772e-06
1.39881e-05
1.39955e-05
1.40023e-05
1.40084e-05
1.40139e-05
1.40189e-05
1.40233e-05
1.40273e-05
1.4031e-05
1.40343e-05
1.40373e-05
1.40401e-05
1.40428e-05
1.40453e-05
1.40476e-05
1.40498e-05
1.40518e-05
1.40537e-05
1.40555e-05
1.40573e-05
1.40591e-05
1.4061e-05
1.40629e-05
1.40648e-05
1.40665e-05
1.4068e-05
1.40693e-05
1.40704e-05
1.40714e-05
1.40724e-05
1.40734e-05
1.40745e-05
1.40758e-05
1.40772e-05
1.40786e-05
1.408e-05
1.40812e-05
1.40822e-05
1.6589e-05
1.65997e-05
1.66097e-05
1.6619e-05
1.66276e-05
1.66356e-05
1.66429e-05
1.66497e-05
1.66559e-05
1.66615e-05
1.66668e-05
1.66717e-05
1.66763e-05
1.66806e-05
1.66846e-05
1.66883e-05
1.66918e-05
1.6695e-05
1.6698e-05
1.67009e-05
1.67037e-05
1.67064e-05
1.6709e-05
1.67116e-05
1.67139e-05
1.6716e-05
1.67179e-05
1.67197e-05
1.67213e-05
1.67228e-05
1.67243e-05
1.67258e-05
1.67273e-05
1.67289e-05
1.67305e-05
1.6732e-05
1.67334e-05
1.67346e-05
1.78899e-05
1.79007e-05
1.79111e-05
1.7921e-05
1.79304e-05
1.79392e-05
1.79473e-05
1.79549e-05
1.79619e-05
1.79684e-05
1.79745e-05
1.79802e-05
1.79856e-05
1.79905e-05
1.79951e-05
1.79994e-05
1.80033e-05
1.8007e-05
1.80105e-05
1.80137e-05
1.80169e-05
1.80199e-05
1.80227e-05
1.80254e-05
1.8028e-05
1.80304e-05
1.80326e-05
1.80346e-05
1.80365e-05
1.80383e-05
1.80399e-05
1.80415e-05
1.80432e-05
1.80448e-05
1.80464e-05
1.80481e-05
1.80496e-05
1.8051e-05
1.85259e-05
1.85366e-05
1.85471e-05
1.85572e-05
1.85669e-05
1.8576e-05
1.85845e-05
1.85925e-05
1.85999e-05
1.86069e-05
1.86134e-05
1.86195e-05
1.86252e-05
1.86306e-05
1.86355e-05
1.864e-05
1.86441e-05
1.8648e-05
1.86516e-05
1.86551e-05
1.86583e-05
1.86614e-05
1.86644e-05
1.86672e-05
1.86698e-05
1.86724e-05
1.86748e-05
1.8677e-05
1.8679e-05
1.86809e-05
1.86826e-05
1.86842e-05
1.86859e-05
1.86875e-05
1.86892e-05
1.86909e-05
1.86925e-05
1.86941e-05
1.87939e-05
1.88045e-05
1.88148e-05
1.88246e-05
1.8834e-05
1.88428e-05
1.88509e-05
1.88586e-05
1.88658e-05
1.88725e-05
1.88789e-05
1.88848e-05
1.88903e-05
1.88953e-05
1.88999e-05
1.89042e-05
1.89081e-05
1.89118e-05
1.89153e-05
1.89185e-05
1.89217e-05
1.89246e-05
1.89274e-05
1.89301e-05
1.89327e-05
1.89352e-05
1.89375e-05
1.89396e-05
1.89414e-05
1.89432e-05
1.89448e-05
1.89463e-05
1.8948e-05
1.89496e-05
1.89514e-05
1.89531e-05
1.89548e-05
1.87936e-05
1.88042e-05
1.88146e-05
1.88246e-05
1.88341e-05
1.8843e-05
1.88512e-05
1.8859e-05
1.88662e-05
1.88731e-05
1.88795e-05
1.88854e-05
1.88909e-05
1.88959e-05
1.89005e-05
1.89047e-05
1.89086e-05
1.89122e-05
1.89157e-05
1.89189e-05
1.89219e-05
1.89248e-05
1.89276e-05
1.89303e-05
1.89328e-05
1.89353e-05
1.89376e-05
1.89396e-05
1.89414e-05
1.89431e-05
1.89446e-05
1.89461e-05
1.89476e-05
1.89493e-05
1.89511e-05
1.89529e-05
1.89547e-05
1.85356e-05
1.85463e-05
1.85568e-05
1.85668e-05
1.85763e-05
1.85852e-05
1.85934e-05
1.8601e-05
1.86082e-05
1.8615e-05
1.86212e-05
1.8627e-05
1.86323e-05
1.86371e-05
1.86415e-05
1.86456e-05
1.86494e-05
1.86529e-05
1.86562e-05
1.86593e-05
1.86622e-05
1.8665e-05
1.86677e-05
1.86703e-05
1.86727e-05
1.86751e-05
1.86772e-05
1.86791e-05
1.86808e-05
1.86823e-05
1.86837e-05
1.86851e-05
1.86865e-05
1.86881e-05
1.86899e-05
1.86918e-05
1.86936e-05
1.86955e-05
1.78994e-05
1.791e-05
1.79204e-05
1.79304e-05
1.79397e-05
1.79483e-05
1.79563e-05
1.79636e-05
1.79705e-05
1.79769e-05
1.79829e-05
1.79883e-05
1.79933e-05
1.79977e-05
1.80018e-05
1.80056e-05
1.80091e-05
1.80124e-05
1.80155e-05
1.80184e-05
1.80211e-05
1.80237e-05
1.80262e-05
1.80287e-05
1.8031e-05
1.80331e-05
1.8035e-05
1.80367e-05
1.80382e-05
1.80394e-05
1.80406e-05
1.80417e-05
1.80431e-05
1.80446e-05
1.80464e-05
1.80483e-05
1.80502e-05
1.80521e-05
1.65981e-05
1.66084e-05
1.66183e-05
1.66276e-05
1.66363e-05
1.66441e-05
1.66513e-05
1.66579e-05
1.6664e-05
1.66697e-05
1.6675e-05
1.66797e-05
1.6684e-05
1.66878e-05
1.66913e-05
1.66945e-05
1.66976e-05
1.67004e-05
1.67031e-05
1.67056e-05
1.67079e-05
1.67102e-05
1.67125e-05
1.67147e-05
1.67168e-05
1.67186e-05
1.67202e-05
1.67215e-05
1.67226e-05
1.67235e-05
1.67243e-05
1.67252e-05
1.67263e-05
1.67278e-05
1.67295e-05
1.67314e-05
1.67334e-05
1.67353e-05
1.39938e-05
1.40009e-05
1.40076e-05
1.40139e-05
1.40195e-05
1.40245e-05
1.4029e-05
1.4033e-05
1.40368e-05
1.40403e-05
1.40435e-05
1.40464e-05
1.40488e-05
1.4051e-05
1.40529e-05
1.40547e-05
1.40564e-05
1.4058e-05
1.40596e-05
1.40611e-05
1.40626e-05
1.40641e-05
1.40658e-05
1.40674e-05
1.4069e-05
1.40703e-05
1.40713e-05
1.40719e-05
1.40723e-05
1.40724e-05
1.40725e-05
1.40728e-05
1.40735e-05
1.40747e-05
1.40764e-05
1.40783e-05
1.40804e-05
1.40824e-05
8.25217e-06
8.22627e-06
8.20325e-06
8.18271e-06
8.16423e-06
8.14747e-06
8.13223e-06
8.11843e-06
8.10597e-06
8.09472e-06
8.0845e-06
8.07517e-06
8.06661e-06
8.05875e-06
8.05165e-06
8.04521e-06
8.03937e-06
8.03408e-06
8.02927e-06
8.0249e-06
8.02094e-06
8.01741e-06
8.0143e-06
8.01157e-06
8.00917e-06
8.007e-06
8.00501e-06
8.00316e-06
8.00145e-06
7.99986e-06
7.99843e-06
7.99722e-06
7.99632e-06
7.99578e-06
7.99568e-06
7.99584e-06
7.99633e-06
7.99708e-06
8.54271e-06
8.51191e-06
8.48444e-06
8.45982e-06
8.43769e-06
8.41775e-06
8.39973e-06
8.3834e-06
8.36856e-06
8.35509e-06
8.34285e-06
8.33173e-06
8.32165e-06
8.31255e-06
8.30432e-06
8.29687e-06
8.29014e-06
8.28403e-06
8.27849e-06
8.27347e-06
8.26895e-06
8.26492e-06
8.26136e-06
8.25822e-06
8.25542e-06
8.25291e-06
8.25065e-06
8.24864e-06
8.24687e-06
8.24534e-06
8.24405e-06
8.243e-06
8.24221e-06
8.24168e-06
8.24139e-06
8.24134e-06
8.2414e-06
8.24156e-06
1.47043e-05
1.47065e-05
1.47088e-05
1.4711e-05
1.47131e-05
1.47152e-05
1.47172e-05
1.4719e-05
1.47207e-05
1.47222e-05
1.47238e-05
1.47252e-05
1.47267e-05
1.47281e-05
1.47295e-05
1.47308e-05
1.4732e-05
1.47332e-05
1.47343e-05
1.47355e-05
1.47367e-05
1.4738e-05
1.47395e-05
1.47409e-05
1.47422e-05
1.47434e-05
1.47443e-05
1.47452e-05
1.4746e-05
1.47467e-05
1.47475e-05
1.47484e-05
1.47494e-05
1.47505e-05
1.47517e-05
1.47528e-05
1.47537e-05
1.47545e-05
1.74624e-05
1.74669e-05
1.74718e-05
1.74767e-05
1.74817e-05
1.74865e-05
1.7491e-05
1.74954e-05
1.74994e-05
1.75033e-05
1.75069e-05
1.75104e-05
1.75137e-05
1.75168e-05
1.75198e-05
1.75226e-05
1.75251e-05
1.75276e-05
1.75299e-05
1.75322e-05
1.75343e-05
1.75365e-05
1.75386e-05
1.75406e-05
1.75425e-05
1.75442e-05
1.75458e-05
1.75472e-05
1.75485e-05
1.75498e-05
1.7551e-05
1.75522e-05
1.75535e-05
1.75548e-05
1.7556e-05
1.75573e-05
1.75584e-05
1.75594e-05
1.88456e-05
1.88499e-05
1.88548e-05
1.88601e-05
1.88655e-05
1.8871e-05
1.88763e-05
1.88813e-05
1.88862e-05
1.88908e-05
1.88953e-05
1.88995e-05
1.89035e-05
1.89073e-05
1.89108e-05
1.89141e-05
1.89172e-05
1.89201e-05
1.89228e-05
1.89254e-05
1.89279e-05
1.89304e-05
1.89327e-05
1.89349e-05
1.8937e-05
1.8939e-05
1.89408e-05
1.89424e-05
1.8944e-05
1.89455e-05
1.89469e-05
1.89482e-05
1.89496e-05
1.89509e-05
1.89523e-05
1.89536e-05
1.89549e-05
1.8956e-05
1.95315e-05
1.95352e-05
1.954e-05
1.95453e-05
1.95509e-05
1.95566e-05
1.95622e-05
1.95676e-05
1.95728e-05
1.95778e-05
1.95826e-05
1.95872e-05
1.95916e-05
1.95957e-05
1.95995e-05
1.96031e-05
1.96064e-05
1.96095e-05
1.96124e-05
1.96152e-05
1.96178e-05
1.96204e-05
1.96228e-05
1.96251e-05
1.96273e-05
1.96293e-05
1.96313e-05