/*--------------------------------*- C++ -*----------------------------------*\
| =========                 |                                                 |
| \\      /  F ield         | OpenFOAM: The Open Source CFD Toolbox           |
|  \\    /   O peration     | Version:  2.3.1                                 |
|   \\  /    A nd           | Web:      www.OpenFOAM.org                      |
|    \\/     M anipulation  |                                                 |
\*---------------------------------------------------------------------------*/
FoamFile
{
    version     2.0;
    format      ascii;
    class       volScalarField;
    location    "15";
    object      k_0;
}
// * * * * * * * * * * * * * * * * * * * * * * * * * * * * * * * * * * * * * //

dimensions      [0 2 -2 0 0 0 0];

internalField   nonuniform List<scalar> 
38262
(
4.14526e-06
4.10392e-06
4.06729e-06
4.03467e-06
4.00551e-06
3.97935e-06
3.95581e-06
3.93454e-06
3.91528e-06
3.8978e-06
3.8819e-06
3.86742e-06
3.85424e-06
3.84224e-06
3.83131e-06
3.82135e-06
3.81227e-06
3.80399e-06
3.79643e-06
3.78956e-06
3.78332e-06
3.77768e-06
3.77261e-06
3.76809e-06
3.76407e-06
3.76049e-06
3.7573e-06
3.75446e-06
3.75194e-06
3.74971e-06
3.74777e-06
3.74611e-06
3.74475e-06
3.74368e-06
3.74294e-06
3.74251e-06
3.74237e-06
3.74242e-06
5.7401e-06
5.69792e-06
5.66045e-06
5.62703e-06
5.59715e-06
5.57033e-06
5.54618e-06
5.52436e-06
5.5046e-06
5.48665e-06
5.47035e-06
5.45554e-06
5.44213e-06
5.42997e-06
5.41892e-06
5.40886e-06
5.3997e-06
5.39137e-06
5.38382e-06
5.377e-06
5.37089e-06
5.36546e-06
5.36067e-06
5.35645e-06
5.35272e-06
5.34939e-06
5.3464e-06
5.3437e-06
5.3413e-06
5.33923e-06
5.33751e-06
5.33617e-06
5.33522e-06
5.33468e-06
5.33452e-06
5.3346e-06
5.33498e-06
5.33556e-06
6.46528e-06
6.42757e-06
6.39401e-06
6.36404e-06
6.3372e-06
6.31309e-06
6.29139e-06
6.27178e-06
6.25403e-06
6.2379e-06
6.22326e-06
6.21002e-06
6.19807e-06
6.18728e-06
6.17749e-06
6.16855e-06
6.16042e-06
6.15305e-06
6.14639e-06
6.1404e-06
6.13506e-06
6.13035e-06
6.12621e-06
6.12258e-06
6.11939e-06
6.11657e-06
6.11405e-06
6.11181e-06
6.10983e-06
6.10816e-06
6.10682e-06
6.1058e-06
6.10512e-06
6.10483e-06
6.10484e-06
6.10514e-06
6.1057e-06
6.10639e-06
6.80376e-06
6.76869e-06
6.73741e-06
6.70942e-06
6.68431e-06
6.66176e-06
6.64145e-06
6.62311e-06
6.60648e-06
6.5914e-06
6.57776e-06
6.56549e-06
6.55446e-06
6.5445e-06
6.53544e-06
6.52716e-06
6.5196e-06
6.51275e-06
6.50657e-06
6.50101e-06
6.49607e-06
6.49173e-06
6.48792e-06
6.48457e-06
6.48165e-06
6.47913e-06
6.47694e-06
6.47503e-06
6.47336e-06
6.47196e-06
6.47081e-06
6.46992e-06
6.46932e-06
6.46911e-06
6.4692e-06
6.46962e-06
6.4703e-06
6.47112e-06
6.94745e-06
6.91357e-06
6.88334e-06
6.85628e-06
6.83201e-06
6.81021e-06
6.79056e-06
6.77279e-06
6.75668e-06
6.74212e-06
6.72901e-06
6.71726e-06
6.70671e-06
6.69716e-06
6.68847e-06
6.68051e-06
6.67324e-06
6.66663e-06
6.66063e-06
6.65522e-06
6.65043e-06
6.64622e-06
6.6425e-06
6.63922e-06
6.63638e-06
6.634e-06
6.63201e-06
6.63033e-06
6.62887e-06
6.62762e-06
6.62653e-06
6.62563e-06
6.62498e-06
6.62473e-06
6.6248e-06
6.62524e-06
6.626e-06
6.62694e-06
6.96397e-06
6.93411e-06
6.90744e-06
6.88357e-06
6.86212e-06
6.84276e-06
6.82523e-06
6.80936e-06
6.79506e-06
6.78223e-06
6.77073e-06
6.76039e-06
6.75101e-06
6.74245e-06
6.73461e-06
6.72746e-06
6.72092e-06
6.71497e-06
6.70959e-06
6.70482e-06
6.70061e-06
6.69687e-06
6.69356e-06
6.69073e-06
6.68839e-06
6.6865e-06
6.68493e-06
6.68359e-06
6.68239e-06
6.68127e-06
6.68028e-06
6.67954e-06
6.67917e-06
6.67921e-06
6.6796e-06
6.68041e-06
6.68146e-06
6.9635e-06
6.93363e-06
6.90704e-06
6.88331e-06
6.862e-06
6.84276e-06
6.82531e-06
6.80954e-06
6.79534e-06
6.78262e-06
6.77121e-06
6.76091e-06
6.75154e-06
6.74297e-06
6.73512e-06
6.72795e-06
6.72142e-06
6.71545e-06
6.71006e-06
6.70525e-06
6.70098e-06
6.69718e-06
6.69383e-06
6.69097e-06
6.68861e-06
6.68671e-06
6.68515e-06
6.6838e-06
6.68255e-06
6.68135e-06
6.68025e-06
6.67939e-06
6.67891e-06
6.67889e-06
6.67923e-06
6.68006e-06
6.68118e-06
6.91231e-06
6.88206e-06
6.85521e-06
6.8313e-06
6.80988e-06
6.79054e-06
6.77301e-06
6.75715e-06
6.74288e-06
6.73008e-06
6.71858e-06
6.70817e-06
6.69867e-06
6.68993e-06
6.68192e-06
6.67462e-06
6.668e-06
6.66199e-06
6.65654e-06
6.65165e-06
6.64728e-06
6.64339e-06
6.63999e-06
6.63707e-06
6.63464e-06
6.63263e-06
6.63094e-06
6.62947e-06
6.62808e-06
6.62675e-06
6.62553e-06
6.62455e-06
6.62396e-06
6.62388e-06
6.62417e-06
6.62498e-06
6.62613e-06
6.6276e-06
6.76695e-06
6.73567e-06
6.70793e-06
6.68328e-06
6.66123e-06
6.64134e-06
6.62332e-06
6.60702e-06
6.59233e-06
6.57913e-06
6.56726e-06
6.55649e-06
6.54662e-06
6.53753e-06
6.52917e-06
6.52158e-06
6.51473e-06
6.50855e-06
6.50294e-06
6.49787e-06
6.49332e-06
6.48927e-06
6.48573e-06
6.48269e-06
6.48009e-06
6.47788e-06
6.47596e-06
6.47425e-06
6.47265e-06
6.47114e-06
6.46976e-06
6.46864e-06
6.46792e-06
6.46776e-06
6.46798e-06
6.4687e-06
6.46982e-06
6.47133e-06
6.42566e-06
6.39209e-06
6.36233e-06
6.33589e-06
6.31227e-06
6.29097e-06
6.27169e-06
6.25425e-06
6.23853e-06
6.22438e-06
6.21162e-06
6.20003e-06
6.18941e-06
6.17964e-06
6.17066e-06
6.16249e-06
6.15514e-06
6.14851e-06
6.14252e-06
6.13707e-06
6.13216e-06
6.12779e-06
6.12394e-06
6.12061e-06
6.11773e-06
6.1152e-06
6.11296e-06
6.11092e-06
6.10903e-06
6.10727e-06
6.10567e-06
6.10435e-06
6.10344e-06
6.10309e-06
6.10318e-06
6.10371e-06
6.10471e-06
6.10615e-06
5.69602e-06
5.65843e-06
5.62509e-06
5.59544e-06
5.56893e-06
5.54504e-06
5.52343e-06
5.50389e-06
5.48626e-06
5.47038e-06
5.45603e-06
5.443e-06
5.43109e-06
5.42015e-06
5.41011e-06
5.40098e-06
5.39273e-06
5.38529e-06
5.37856e-06
5.37247e-06
5.36696e-06
5.36202e-06
5.35767e-06
5.35389e-06
5.3506e-06
5.34769e-06
5.34507e-06
5.34266e-06
5.34042e-06
5.33833e-06
5.33642e-06
5.33479e-06
5.33357e-06
5.33286e-06
5.3327e-06
5.33291e-06
5.33361e-06
5.33487e-06
4.10268e-06
4.06585e-06
4.03311e-06
4.00393e-06
3.97783e-06
3.95439e-06
3.93324e-06
3.91412e-06
3.89682e-06
3.88117e-06
3.86699e-06
3.85413e-06
3.84243e-06
3.83176e-06
3.822e-06
3.81307e-06
3.80491e-06
3.79748e-06
3.79071e-06
3.78454e-06
3.77893e-06
3.77384e-06
3.76926e-06
3.76517e-06
3.76154e-06
3.75833e-06
3.75547e-06
3.75291e-06
3.7506e-06
3.7485e-06
3.7466e-06
3.7449e-06
3.74345e-06
3.7423e-06
3.74148e-06
3.74111e-06
3.74112e-06
3.7415e-06
6.23919e-06
6.21635e-06
6.19588e-06
6.17748e-06
6.16087e-06
6.14584e-06
6.13218e-06
6.11974e-06
6.10839e-06
6.09801e-06
6.08853e-06
6.07987e-06
6.07199e-06
6.06483e-06
6.05833e-06
6.05243e-06
6.04705e-06
6.04217e-06
6.03775e-06
6.03374e-06
6.03015e-06
6.02696e-06
6.02417e-06
6.02172e-06
6.01956e-06
6.01764e-06
6.01593e-06
6.01442e-06
6.01309e-06
6.01197e-06
6.01107e-06
6.01039e-06
6.00993e-06
6.0097e-06
6.00964e-06
6.00971e-06
6.00988e-06
6.01017e-06
9.10451e-06
9.12495e-06
9.14247e-06
9.15763e-06
9.17085e-06
9.18243e-06
9.19258e-06
9.20151e-06
9.2094e-06
9.21639e-06
9.22265e-06
9.22834e-06
9.23362e-06
9.23851e-06
9.24302e-06
9.24713e-06
9.25092e-06
9.25448e-06
9.25784e-06
9.26105e-06
9.26418e-06
9.26729e-06
9.27036e-06
9.2733e-06
9.276e-06
9.2784e-06
9.28047e-06
9.28225e-06
9.28385e-06
9.28543e-06
9.28711e-06
9.28893e-06
9.29092e-06
9.29306e-06
9.29525e-06
9.29734e-06
9.29917e-06
9.30068e-06
1.08205e-05
1.08477e-05
1.08711e-05
1.08915e-05
1.09093e-05
1.09249e-05
1.09388e-05
1.09511e-05
1.09621e-05
1.09718e-05
1.09807e-05
1.09888e-05
1.09963e-05
1.10032e-05
1.10095e-05
1.10153e-05
1.10205e-05
1.10254e-05
1.10301e-05
1.10345e-05
1.10388e-05
1.10429e-05
1.10469e-05
1.10507e-05
1.10542e-05
1.10574e-05
1.10603e-05
1.10628e-05
1.10651e-05
1.10673e-05
1.10695e-05
1.10718e-05
1.10742e-05
1.10768e-05
1.10793e-05
1.10818e-05
1.1084e-05
1.10859e-05
1.16605e-05
1.16903e-05
1.17161e-05
1.17385e-05
1.17582e-05
1.17755e-05
1.17909e-05
1.18046e-05
1.18167e-05
1.18277e-05
1.18377e-05
1.1847e-05
1.18555e-05
1.18634e-05
1.18705e-05
1.1877e-05
1.18828e-05
1.18883e-05
1.18934e-05
1.18982e-05
1.19029e-05
1.19074e-05
1.19118e-05
1.19158e-05
1.19197e-05
1.19233e-05
1.19266e-05
1.19296e-05
1.19323e-05
1.19349e-05
1.19374e-05
1.19398e-05
1.19423e-05
1.19449e-05
1.19476e-05
1.19503e-05
1.19528e-05
1.19549e-05
1.20383e-05
1.20693e-05
1.20961e-05
1.21195e-05
1.214e-05
1.21581e-05
1.21741e-05
1.21884e-05
1.22012e-05
1.22127e-05
1.22234e-05
1.22333e-05
1.22425e-05
1.22508e-05
1.22583e-05
1.2265e-05
1.22712e-05
1.22768e-05
1.2282e-05
1.2287e-05
1.22917e-05
1.22963e-05
1.23007e-05
1.23048e-05
1.23087e-05
1.23126e-05
1.23162e-05
1.23196e-05
1.23227e-05
1.23254e-05
1.23279e-05
1.23302e-05
1.23326e-05
1.23351e-05
1.23378e-05
1.23407e-05
1.23434e-05
1.23458e-05
1.22094e-05
1.22366e-05
1.22604e-05
1.22815e-05
1.23e-05
1.23164e-05
1.2331e-05
1.2344e-05
1.2356e-05
1.2367e-05
1.23772e-05
1.23866e-05
1.23951e-05
1.24027e-05
1.24096e-05
1.24158e-05
1.24214e-05
1.24266e-05
1.24315e-05
1.24362e-05
1.24408e-05
1.2445e-05
1.2449e-05
1.2453e-05
1.24569e-05
1.24607e-05
1.24643e-05
1.24675e-05
1.24703e-05
1.24727e-05
1.24748e-05
1.2477e-05
1.24794e-05
1.24821e-05
1.2485e-05
1.24879e-05
1.24906e-05
1.22086e-05
1.22359e-05
1.226e-05
1.22814e-05
1.23002e-05
1.23169e-05
1.23316e-05
1.23448e-05
1.2357e-05
1.23682e-05
1.23785e-05
1.23879e-05
1.23963e-05
1.24039e-05
1.24106e-05
1.24168e-05
1.24224e-05
1.24275e-05
1.24323e-05
1.24369e-05
1.24413e-05
1.24454e-05
1.24494e-05
1.24533e-05
1.24572e-05
1.2461e-05
1.24646e-05
1.24677e-05
1.24704e-05
1.24726e-05
1.24745e-05
1.24765e-05
1.24788e-05
1.24814e-05
1.24843e-05
1.24874e-05
1.24903e-05
1.20673e-05
1.20944e-05
1.21185e-05
1.21398e-05
1.21588e-05
1.21754e-05
1.21902e-05
1.22035e-05
1.22156e-05
1.22267e-05
1.22369e-05
1.22461e-05
1.22543e-05
1.22616e-05
1.22681e-05
1.2274e-05
1.22795e-05
1.22846e-05
1.22893e-05
1.22937e-05
1.22979e-05
1.23019e-05
1.23058e-05
1.23096e-05
1.23133e-05
1.23169e-05
1.23203e-05
1.23232e-05
1.23256e-05
1.23276e-05
1.23293e-05
1.23312e-05
1.23333e-05
1.23359e-05
1.23388e-05
1.2342e-05
1.23451e-05
1.23479e-05
1.16877e-05
1.1714e-05
1.17373e-05
1.17581e-05
1.17766e-05
1.17928e-05
1.18072e-05
1.182e-05
1.18317e-05
1.18424e-05
1.18522e-05
1.18609e-05
1.18686e-05
1.18754e-05
1.18815e-05
1.1887e-05
1.18923e-05
1.18972e-05
1.19017e-05
1.19059e-05
1.19098e-05
1.19136e-05
1.19173e-05
1.19209e-05
1.19243e-05
1.19276e-05
1.19305e-05
1.19331e-05
1.19351e-05
1.19368e-05
1.19384e-05
1.194e-05
1.1942e-05
1.19445e-05
1.19474e-05
1.19505e-05
1.19537e-05
1.19566e-05
1.0845e-05
1.08689e-05
1.08903e-05
1.09093e-05
1.09261e-05
1.09409e-05
1.09539e-05
1.09655e-05
1.09761e-05
1.09857e-05
1.09945e-05
1.10023e-05
1.10091e-05
1.1015e-05
1.10203e-05
1.10252e-05
1.10299e-05
1.10343e-05
1.10383e-05
1.10421e-05
1.10456e-05
1.1049e-05
1.10523e-05
1.10555e-05
1.10585e-05
1.10613e-05
1.10638e-05
1.10658e-05
1.10674e-05
1.10688e-05
1.107e-05
1.10714e-05
1.10732e-05
1.10755e-05
1.10782e-05
1.10812e-05
1.10842e-05
1.10871e-05
9.12261e-06
9.14054e-06
9.15648e-06
9.17068e-06
9.1832e-06
9.19405e-06
9.20349e-06
9.21188e-06
9.2195e-06
9.22648e-06
9.23279e-06
9.23838e-06
9.24321e-06
9.24738e-06
9.25107e-06
9.25449e-06
9.2578e-06
9.26099e-06
9.26398e-06
9.26675e-06
9.26934e-06
9.27185e-06
9.27437e-06
9.27689e-06
9.2793e-06
9.28144e-06
9.28321e-06
9.28459e-06
9.28564e-06
9.28645e-06
9.28718e-06
9.28809e-06
9.28942e-06
9.2913e-06
9.29362e-06
9.29623e-06
9.29885e-06
9.30132e-06
6.21489e-06
6.19443e-06
6.17617e-06
6.15982e-06
6.1451e-06
6.13173e-06
6.11956e-06
6.1085e-06
6.09847e-06
6.08939e-06
6.08115e-06
6.07361e-06
6.06671e-06
6.06035e-06
6.05451e-06
6.04916e-06
6.04428e-06
6.03985e-06
6.0358e-06
6.03209e-06
6.02873e-06
6.02569e-06
6.02301e-06
6.02066e-06
6.01859e-06
6.01674e-06
6.01506e-06
6.01352e-06
6.01211e-06
6.01084e-06
6.00973e-06
6.00884e-06
6.00824e-06
6.00801e-06
6.0081e-06
6.00844e-06
6.00899e-06
6.0097e-06
7.26977e-06
7.24475e-06
7.22237e-06
7.20228e-06
7.18418e-06
7.16783e-06
7.15301e-06
7.13955e-06
7.12729e-06
7.11612e-06
7.10592e-06
7.09663e-06
7.08818e-06
7.0805e-06
7.07353e-06
7.06719e-06
7.06141e-06
7.05616e-06
7.0514e-06
7.04709e-06
7.04322e-06
7.03977e-06
7.03674e-06
7.03408e-06
7.03172e-06
7.02962e-06
7.02774e-06
7.02606e-06
7.02459e-06
7.02334e-06
7.0223e-06
7.0215e-06
7.02094e-06
7.02062e-06
7.02052e-06
7.02057e-06
7.02076e-06
7.02108e-06
1.14259e-05
1.14444e-05
1.14604e-05
1.14743e-05
1.14865e-05
1.14973e-05
1.15067e-05
1.15151e-05
1.15226e-05
1.15293e-05
1.15353e-05
1.15407e-05
1.15458e-05
1.15505e-05
1.15549e-05
1.15588e-05
1.15625e-05
1.15659e-05
1.15691e-05
1.15722e-05
1.15752e-05
1.15781e-05
1.1581e-05
1.15838e-05
1.15864e-05
1.15887e-05
1.15906e-05
1.15923e-05
1.15938e-05
1.15953e-05
1.15968e-05
1.15984e-05
1.16002e-05
1.16022e-05
1.16042e-05
1.16061e-05
1.16078e-05
1.16092e-05
1.35704e-05
1.35938e-05
1.36144e-05
1.36325e-05
1.36485e-05
1.36627e-05
1.36755e-05
1.36869e-05
1.36971e-05
1.37063e-05
1.37146e-05
1.37223e-05
1.37294e-05
1.3736e-05
1.3742e-05
1.37475e-05
1.37526e-05
1.37573e-05
1.37617e-05
1.37658e-05
1.37698e-05
1.37737e-05
1.37774e-05
1.37809e-05
1.37842e-05
1.37872e-05
1.37898e-05
1.37922e-05
1.37944e-05
1.37965e-05
1.37985e-05
1.38006e-05
1.38027e-05
1.38049e-05
1.38071e-05
1.38093e-05
1.38112e-05
1.38129e-05
1.46337e-05
1.46587e-05
1.46807e-05
1.47001e-05
1.47175e-05
1.47329e-05
1.47468e-05
1.47593e-05
1.47705e-05
1.47807e-05
1.479e-05
1.47987e-05
1.48066e-05
1.4814e-05
1.48207e-05
1.48268e-05
1.48324e-05
1.48375e-05
1.48424e-05
1.48469e-05
1.48513e-05
1.48555e-05
1.48595e-05
1.48632e-05
1.48668e-05
1.48701e-05
1.48731e-05
1.48759e-05
1.48784e-05
1.48808e-05
1.4883e-05
1.48852e-05
1.48874e-05
1.48897e-05
1.4892e-05
1.48943e-05
1.48965e-05
1.48984e-05
1.51299e-05
1.51555e-05
1.51782e-05
1.51983e-05
1.52163e-05
1.52324e-05
1.52469e-05
1.52599e-05
1.52716e-05
1.52823e-05
1.52922e-05
1.53014e-05
1.53099e-05
1.53176e-05
1.53247e-05
1.5331e-05
1.53369e-05
1.53422e-05
1.53472e-05
1.53519e-05
1.53564e-05
1.53607e-05
1.53647e-05
1.53686e-05
1.53722e-05
1.53757e-05
1.5379e-05
1.5382e-05
1.53848e-05
1.53873e-05
1.53896e-05
1.53918e-05
1.53939e-05
1.53962e-05
1.53985e-05
1.5401e-05
1.54033e-05
1.54054e-05
1.53465e-05
1.53695e-05
1.539e-05
1.54084e-05
1.54249e-05
1.54397e-05
1.5453e-05
1.5465e-05
1.54761e-05
1.54863e-05
1.54957e-05
1.55044e-05
1.55123e-05
1.55195e-05
1.5526e-05
1.55319e-05
1.55374e-05
1.55424e-05
1.5547e-05
1.55515e-05
1.55558e-05
1.55598e-05
1.55636e-05
1.55672e-05
1.55708e-05
1.55742e-05
1.55774e-05
1.55803e-05
1.55829e-05
1.55851e-05
1.55872e-05
1.55892e-05
1.55914e-05
1.55937e-05
1.55962e-05
1.55987e-05
1.5601e-05
1.5346e-05
1.5369e-05
1.53897e-05
1.54084e-05
1.54251e-05
1.544e-05
1.54535e-05
1.54656e-05
1.54768e-05
1.54871e-05
1.54967e-05
1.55054e-05
1.55133e-05
1.55204e-05
1.55268e-05
1.55327e-05
1.55381e-05
1.5543e-05
1.55477e-05
1.5552e-05
1.55562e-05
1.55601e-05
1.55638e-05
1.55675e-05
1.5571e-05
1.55744e-05
1.55776e-05
1.55805e-05
1.55829e-05
1.5585e-05
1.55869e-05
1.55889e-05
1.55909e-05
1.55932e-05
1.55957e-05
1.55983e-05
1.56008e-05
1.5154e-05
1.51769e-05
1.51976e-05
1.52162e-05
1.52329e-05
1.52478e-05
1.52612e-05
1.52733e-05
1.52844e-05
1.52947e-05
1.53041e-05
1.53126e-05
1.53203e-05
1.53272e-05
1.53334e-05
1.5339e-05
1.53443e-05
1.53492e-05
1.53537e-05
1.53579e-05
1.53619e-05
1.53657e-05
1.53693e-05
1.53728e-05
1.53763e-05
1.53795e-05
1.53825e-05
1.53852e-05
1.53875e-05
1.53894e-05
1.53911e-05
1.53929e-05
1.53948e-05
1.5397e-05
1.53995e-05
1.54022e-05
1.54048e-05
1.54073e-05
1.46567e-05
1.4679e-05
1.46992e-05
1.47174e-05
1.47337e-05
1.47483e-05
1.47613e-05
1.4773e-05
1.47837e-05
1.47936e-05
1.48026e-05
1.48107e-05
1.4818e-05
1.48244e-05
1.48302e-05
1.48356e-05
1.48405e-05
1.48452e-05
1.48495e-05
1.48535e-05
1.48573e-05
1.48609e-05
1.48643e-05
1.48677e-05
1.48709e-05
1.48739e-05
1.48766e-05
1.48789e-05
1.48809e-05
1.48826e-05
1.48841e-05
1.48856e-05
1.48874e-05
1.48896e-05
1.4892e-05
1.48947e-05
1.48973e-05
1.48999e-05
1.35917e-05
1.36126e-05
1.36315e-05
1.36485e-05
1.36636e-05
1.36771e-05
1.36891e-05
1.36998e-05
1.37096e-05
1.37186e-05
1.37267e-05
1.3734e-05
1.37405e-05
1.37463e-05
1.37514e-05
1.37561e-05
1.37606e-05
1.37648e-05
1.37687e-05
1.37723e-05
1.37757e-05
1.3779e-05
1.37821e-05
1.37852e-05
1.37881e-05
1.37907e-05
1.3793e-05
1.3795e-05
1.37965e-05
1.37979e-05
1.3799e-05
1.38003e-05
1.38019e-05
1.38039e-05
1.38062e-05
1.38088e-05
1.38114e-05
1.3814e-05
1.14423e-05
1.14586e-05
1.14733e-05
1.14863e-05
1.14979e-05
1.1508e-05
1.15169e-05
1.15248e-05
1.15319e-05
1.15385e-05
1.15445e-05
1.15498e-05
1.15544e-05
1.15584e-05
1.1562e-05
1.15653e-05
1.15685e-05
1.15715e-05
1.15744e-05
1.15771e-05
1.15796e-05
1.15821e-05
1.15846e-05
1.15871e-05
1.15895e-05
1.15916e-05
1.15933e-05
1.15946e-05
1.15956e-05
1.15963e-05
1.15969e-05
1.15977e-05
1.15988e-05
1.16005e-05
1.16025e-05
1.16049e-05
1.16073e-05
1.16097e-05
7.24336e-06
7.22096e-06
7.20098e-06
7.18311e-06
7.16704e-06
7.15247e-06
7.13923e-06
7.12721e-06
7.11633e-06
7.10648e-06
7.09754e-06
7.08939e-06
7.08193e-06
7.07507e-06
7.06878e-06
7.06304e-06
7.05781e-06
7.05307e-06
7.04875e-06
7.04481e-06
7.04124e-06
7.03804e-06
7.0352e-06
7.03272e-06
7.03054e-06
7.0286e-06
7.02683e-06
7.02521e-06
7.02372e-06
7.02235e-06
7.02114e-06
7.02014e-06
7.01942e-06
7.01904e-06
7.01906e-06
7.01929e-06
7.01984e-06
7.02063e-06
7.88774e-06
7.86068e-06
7.83651e-06
7.81484e-06
7.79534e-06
7.77775e-06
7.76184e-06
7.74741e-06
7.73429e-06
7.72235e-06
7.71148e-06
7.70158e-06
7.69258e-06
7.68443e-06
7.67702e-06
7.67029e-06
7.66415e-06
7.65858e-06
7.65352e-06
7.64894e-06
7.64483e-06
7.64116e-06
7.63792e-06
7.63508e-06
7.63256e-06
7.6303e-06
7.62828e-06
7.62647e-06
7.62488e-06
7.62352e-06
7.62239e-06
7.6215e-06
7.62086e-06
7.62047e-06
7.62031e-06
7.62035e-06
7.62051e-06
7.62082e-06
1.29497e-05
1.29629e-05
1.29745e-05
1.29847e-05
1.29937e-05
1.30016e-05
1.30087e-05
1.3015e-05
1.30207e-05
1.30257e-05
1.30303e-05
1.30345e-05
1.30384e-05
1.30421e-05
1.30455e-05
1.30486e-05
1.30515e-05
1.30542e-05
1.30567e-05
1.30592e-05
1.30616e-05
1.30641e-05
1.30665e-05
1.30689e-05
1.3071e-05
1.30729e-05
1.30746e-05
1.3076e-05
1.30772e-05
1.30785e-05
1.30797e-05
1.30811e-05
1.30826e-05
1.30843e-05
1.3086e-05
1.30877e-05
1.30891e-05
1.30904e-05
1.53553e-05
1.53724e-05
1.53878e-05
1.54017e-05
1.54142e-05
1.54254e-05
1.54356e-05
1.54448e-05
1.54531e-05
1.54606e-05
1.54675e-05
1.54739e-05
1.54798e-05
1.54853e-05
1.54904e-05
1.54951e-05
1.54994e-05
1.55034e-05
1.55071e-05
1.55107e-05
1.55141e-05
1.55174e-05
1.55206e-05
1.55236e-05
1.55264e-05
1.5529e-05
1.55313e-05
1.55334e-05
1.55353e-05
1.55371e-05
1.55388e-05
1.55406e-05
1.55424e-05
1.55443e-05
1.55462e-05
1.5548e-05
1.55497e-05
1.55512e-05
1.6555e-05
1.65729e-05
1.65891e-05
1.66039e-05
1.66174e-05
1.66296e-05
1.66407e-05
1.66508e-05
1.666e-05
1.66684e-05
1.66762e-05
1.66834e-05
1.66902e-05
1.66964e-05
1.67021e-05
1.67073e-05
1.67121e-05
1.67166e-05
1.67207e-05
1.67247e-05
1.67284e-05
1.67321e-05
1.67355e-05
1.67387e-05
1.67418e-05
1.67446e-05
1.67473e-05
1.67497e-05
1.67519e-05
1.67539e-05
1.67559e-05
1.67578e-05
1.67597e-05
1.67616e-05
1.67636e-05
1.67656e-05
1.67674e-05
1.67691e-05
1.71302e-05
1.71484e-05
1.7165e-05
1.71802e-05
1.71941e-05
1.72068e-05
1.72184e-05
1.7229e-05
1.72386e-05
1.72475e-05
1.72558e-05
1.72635e-05
1.72707e-05
1.72772e-05
1.72833e-05
1.72887e-05
1.72938e-05
1.72985e-05
1.73028e-05
1.73069e-05
1.73108e-05
1.73145e-05
1.7318e-05
1.73213e-05
1.73245e-05
1.73275e-05
1.73303e-05
1.73329e-05
1.73353e-05
1.73375e-05
1.73396e-05
1.73415e-05
1.73433e-05
1.73453e-05
1.73473e-05
1.73493e-05
1.73513e-05
1.73531e-05
1.73763e-05
1.73931e-05
1.74086e-05
1.74228e-05
1.74358e-05
1.74477e-05
1.74585e-05
1.74684e-05
1.74776e-05
1.74862e-05
1.74941e-05
1.75015e-05
1.75082e-05
1.75144e-05
1.752e-05
1.75251e-05
1.75298e-05
1.75342e-05
1.75383e-05
1.75422e-05
1.75459e-05
1.75494e-05
1.75527e-05
1.75559e-05
1.7559e-05
1.75619e-05
1.75647e-05
1.75671e-05
1.75694e-05
1.75714e-05
1.75732e-05
1.7575e-05
1.75769e-05
1.75789e-05
1.7581e-05
1.75831e-05
1.75851e-05
1.73759e-05
1.73928e-05
1.74084e-05
1.74228e-05
1.74359e-05
1.74479e-05
1.74589e-05
1.74689e-05
1.74782e-05
1.74868e-05
1.74949e-05
1.75022e-05
1.75089e-05
1.7515e-05
1.75206e-05
1.75257e-05
1.75304e-05
1.75347e-05
1.75388e-05
1.75426e-05
1.75462e-05
1.75497e-05
1.75529e-05
1.75561e-05
1.75591e-05
1.75621e-05
1.75648e-05
1.75672e-05
1.75694e-05
1.75713e-05
1.7573e-05
1.75747e-05
1.75765e-05
1.75785e-05
1.75806e-05
1.75828e-05
1.75849e-05
1.71472e-05
1.7164e-05
1.71796e-05
1.7194e-05
1.72072e-05
1.72192e-05
1.723e-05
1.724e-05
1.72492e-05
1.72577e-05
1.72656e-05
1.72728e-05
1.72794e-05
1.72852e-05
1.72906e-05
1.72955e-05
1.73001e-05
1.73043e-05
1.73082e-05
1.73119e-05
1.73154e-05
1.73188e-05
1.73219e-05
1.7325e-05
1.73279e-05
1.73307e-05
1.73333e-05
1.73356e-05
1.73376e-05
1.73393e-05
1.73409e-05
1.73424e-05
1.73441e-05
1.73461e-05
1.73482e-05
1.73504e-05
1.73526e-05
1.73547e-05
1.65713e-05
1.65878e-05
1.66032e-05
1.66173e-05
1.66302e-05
1.66418e-05
1.66524e-05
1.6662e-05
1.66709e-05
1.66791e-05
1.66866e-05
1.66934e-05
1.66996e-05
1.67051e-05
1.67101e-05
1.67147e-05
1.6719e-05
1.6723e-05
1.67267e-05
1.67302e-05
1.67335e-05
1.67366e-05
1.67396e-05
1.67425e-05
1.67453e-05
1.67479e-05
1.67502e-05
1.67522e-05
1.67539e-05
1.67554e-05
1.67568e-05
1.67582e-05
1.67597e-05
1.67616e-05
1.67636e-05
1.67659e-05
1.67681e-05
1.67704e-05
1.53706e-05
1.53864e-05
1.54009e-05
1.54141e-05
1.54262e-05
1.54369e-05
1.54466e-05
1.54554e-05
1.54634e-05
1.54708e-05
1.54776e-05
1.54837e-05
1.54891e-05
1.5494e-05
1.54984e-05
1.55024e-05
1.55062e-05
1.55098e-05
1.55131e-05
1.55162e-05
1.55191e-05
1.55219e-05
1.55247e-05
1.55273e-05
1.55298e-05
1.55321e-05
1.5534e-05
1.55357e-05
1.5537e-05
1.55382e-05
1.55392e-05
1.55403e-05
1.55417e-05
1.55434e-05
1.55454e-05
1.55476e-05
1.55498e-05
1.55521e-05
1.2961e-05
1.29729e-05
1.29837e-05
1.29935e-05
1.30023e-05
1.301e-05
1.30167e-05
1.30227e-05
1.30283e-05
1.30334e-05
1.3038e-05
1.30421e-05
1.30457e-05
1.30488e-05
1.30516e-05
1.30542e-05
1.30567e-05
1.30591e-05
1.30613e-05
1.30635e-05
1.30655e-05
1.30676e-05
1.30697e-05
1.30718e-05
1.30738e-05
1.30756e-05
1.30769e-05
1.30779e-05
1.30786e-05
1.3079e-05
1.30794e-05
1.308e-05
1.30809e-05
1.30823e-05
1.30841e-05
1.30863e-05
1.30885e-05
1.30907e-05
7.85926e-06
7.83506e-06
7.81351e-06
7.79426e-06
7.77696e-06
7.76129e-06
7.74707e-06
7.73417e-06
7.7225e-06
7.71196e-06
7.70239e-06
7.69367e-06
7.68569e-06
7.67837e-06
7.67167e-06
7.66557e-06
7.66002e-06
7.65499e-06
7.65042e-06
7.64626e-06
7.6425e-06
7.63912e-06
7.63615e-06
7.63354e-06
7.63125e-06
7.6292e-06
7.62733e-06
7.6256e-06
7.624e-06
7.62253e-06
7.62121e-06
7.62011e-06
7.61929e-06
7.61883e-06
7.61879e-06
7.61898e-06
7.6195e-06
7.62029e-06
8.28358e-06
8.25458e-06
8.22868e-06
8.20544e-06
8.18454e-06
8.16568e-06
8.14862e-06
8.13316e-06
8.1191e-06
8.10631e-06
8.09468e-06
8.08411e-06
8.07454e-06
8.06593e-06
8.05814e-06
8.05105e-06
8.0446e-06
8.03874e-06
8.03342e-06
8.02862e-06
8.02428e-06
8.02042e-06
8.01701e-06
8.01401e-06
8.01134e-06
8.00895e-06
8.0068e-06
8.00488e-06
8.00319e-06
8.00174e-06
8.00052e-06
7.99955e-06
7.99883e-06
7.99837e-06
7.99815e-06
7.99815e-06
7.99825e-06
7.99851e-06
1.39893e-05
1.39968e-05
1.40036e-05
1.40097e-05
1.40151e-05
1.40201e-05
1.40246e-05
1.40286e-05
1.40322e-05
1.40355e-05
1.40385e-05
1.40414e-05
1.4044e-05
1.40465e-05
1.40489e-05
1.4051e-05
1.4053e-05
1.40549e-05
1.40568e-05
1.40586e-05
1.40604e-05
1.40622e-05
1.40641e-05
1.4066e-05
1.40678e-05
1.40692e-05
1.40705e-05
1.40716e-05
1.40726e-05
1.40736e-05
1.40746e-05
1.40758e-05
1.4077e-05
1.40784e-05
1.40799e-05
1.40812e-05
1.40824e-05
1.40834e-05
1.65903e-05
1.6601e-05
1.6611e-05
1.66203e-05
1.66289e-05
1.66369e-05
1.66442e-05
1.6651e-05
1.66571e-05
1.66628e-05
1.66681e-05
1.6673e-05
1.66776e-05
1.66819e-05
1.66859e-05
1.66896e-05
1.6693e-05
1.66963e-05
1.66993e-05
1.67022e-05
1.6705e-05
1.67077e-05
1.67103e-05
1.67128e-05
1.67152e-05
1.67173e-05
1.67192e-05
1.6721e-05
1.67226e-05
1.67241e-05
1.67256e-05
1.67271e-05
1.67286e-05
1.67302e-05
1.67317e-05
1.67333e-05
1.67347e-05
1.67359e-05
1.78911e-05
1.7902e-05
1.79124e-05
1.79223e-05
1.79317e-05
1.79404e-05
1.79486e-05
1.79562e-05
1.79632e-05
1.79697e-05
1.79758e-05
1.79815e-05
1.79868e-05
1.79918e-05
1.79964e-05
1.80006e-05
1.80046e-05
1.80082e-05
1.80117e-05
1.8015e-05
1.80181e-05
1.80211e-05
1.8024e-05
1.80267e-05
1.80292e-05
1.80316e-05
1.80338e-05
1.80359e-05
1.80377e-05
1.80395e-05
1.80412e-05
1.80428e-05
1.80444e-05
1.8046e-05
1.80477e-05
1.80493e-05
1.80508e-05
1.80522e-05
1.85271e-05
1.85378e-05
1.85483e-05
1.85584e-05
1.85681e-05
1.85772e-05
1.85858e-05
1.85937e-05
1.86011e-05
1.86081e-05
1.86146e-05
1.86207e-05
1.86264e-05
1.86318e-05
1.86367e-05
1.86412e-05
1.86453e-05
1.86492e-05
1.86528e-05
1.86563e-05
1.86595e-05
1.86626e-05
1.86656e-05
1.86684e-05
1.8671e-05
1.86736e-05
1.86759e-05
1.86782e-05
1.86802e-05
1.86821e-05
1.86838e-05
1.86854e-05
1.8687e-05
1.86887e-05
1.86904e-05
1.86921e-05
1.86937e-05
1.86953e-05
1.87951e-05
1.88057e-05
1.8816e-05
1.88258e-05
1.88352e-05
1.8844e-05
1.88521e-05
1.88598e-05
1.8867e-05
1.88737e-05
1.88801e-05
1.8886e-05
1.88914e-05
1.88965e-05
1.89011e-05
1.89053e-05
1.89093e-05
1.8913e-05
1.89164e-05
1.89197e-05
1.89228e-05
1.89258e-05
1.89286e-05
1.89313e-05
1.89339e-05
1.89363e-05
1.89386e-05
1.89407e-05
1.89426e-05
1.89443e-05
1.89459e-05
1.89475e-05
1.89491e-05
1.89508e-05
1.89525e-05
1.89543e-05
1.8956e-05
1.87948e-05
1.88054e-05
1.88158e-05
1.88258e-05
1.88353e-05
1.88442e-05
1.88524e-05
1.88602e-05
1.88674e-05
1.88743e-05
1.88807e-05
1.88866e-05
1.8892e-05
1.8897e-05
1.89016e-05
1.89058e-05
1.89098e-05
1.89134e-05
1.89168e-05
1.892e-05
1.89231e-05
1.8926e-05
1.89288e-05
1.89314e-05
1.8934e-05
1.89364e-05
1.89387e-05
1.89408e-05
1.89426e-05
1.89442e-05
1.89457e-05
1.89472e-05
1.89488e-05
1.89505e-05
1.89522e-05
1.8954e-05
1.89558e-05
1.85369e-05
1.85475e-05
1.8558e-05
1.8568e-05
1.85775e-05
1.85864e-05
1.85946e-05
1.86023e-05
1.86094e-05
1.86162e-05
1.86224e-05
1.86282e-05
1.86335e-05
1.86383e-05
1.86427e-05
1.86468e-05
1.86506e-05
1.86541e-05
1.86574e-05
1.86605e-05
1.86634e-05
1.86662e-05
1.86689e-05
1.86715e-05
1.86739e-05
1.86763e-05
1.86784e-05
1.86803e-05
1.8682e-05
1.86835e-05
1.86849e-05
1.86862e-05
1.86877e-05
1.86893e-05
1.86911e-05
1.8693e-05
1.86948e-05
1.86967e-05
1.79006e-05
1.79113e-05
1.79217e-05
1.79316e-05
1.7941e-05
1.79496e-05
1.79575e-05
1.79649e-05
1.79718e-05
1.79782e-05
1.79841e-05
1.79896e-05
1.79945e-05
1.7999e-05
1.8003e-05
1.80068e-05
1.80103e-05
1.80136e-05
1.80167e-05
1.80196e-05
1.80223e-05
1.80249e-05
1.80275e-05
1.80299e-05
1.80322e-05
1.80343e-05
1.80363e-05
1.80379e-05
1.80394e-05
1.80406e-05
1.80418e-05
1.8043e-05
1.80443e-05
1.80459e-05
1.80476e-05
1.80495e-05
1.80514e-05
1.80533e-05
1.65994e-05
1.66097e-05
1.66196e-05
1.66289e-05
1.66376e-05
1.66454e-05
1.66526e-05
1.66592e-05
1.66653e-05
1.6671e-05
1.66763e-05
1.6681e-05
1.66853e-05
1.66891e-05
1.66926e-05
1.66958e-05
1.66988e-05
1.67017e-05
1.67044e-05
1.67068e-05
1.67092e-05
1.67115e-05
1.67138e-05
1.6716e-05
1.6718e-05
1.67199e-05
1.67215e-05
1.67228e-05
1.67239e-05
1.67248e-05
1.67256e-05
1.67265e-05
1.67276e-05
1.67291e-05
1.67308e-05
1.67327e-05
1.67347e-05
1.67366e-05
1.39951e-05
1.40021e-05
1.40088e-05
1.40151e-05
1.40208e-05
1.40258e-05
1.40302e-05
1.40343e-05
1.4038e-05
1.40415e-05
1.40447e-05
1.40476e-05
1.40501e-05
1.40522e-05
1.40541e-05
1.40559e-05
1.40576e-05
1.40592e-05
1.40608e-05
1.40623e-05
1.40638e-05
1.40653e-05
1.4067e-05
1.40687e-05
1.40702e-05
1.40715e-05
1.40725e-05
1.40731e-05
1.40735e-05
1.40736e-05
1.40737e-05
1.4074e-05
1.40747e-05
1.40759e-05
1.40776e-05
1.40795e-05
1.40816e-05
1.40836e-05
8.25292e-06
8.22702e-06
8.20401e-06
8.18347e-06
8.16499e-06
8.14823e-06
8.133e-06
8.11921e-06
8.10675e-06
8.0955e-06
8.08528e-06
8.07595e-06
8.06739e-06
8.05953e-06
8.05243e-06
8.04599e-06
8.04016e-06
8.03486e-06
8.03006e-06
8.02568e-06
8.02173e-06
8.0182e-06
8.01509e-06
8.01236e-06
8.00996e-06
8.00779e-06
8.0058e-06
8.00395e-06
8.00224e-06
8.00065e-06
7.99922e-06
7.99801e-06
7.99711e-06
7.99658e-06
7.99647e-06
7.99664e-06
7.99712e-06
7.99787e-06
8.54343e-06
8.51264e-06
8.48518e-06
8.46056e-06
8.43843e-06
8.4185e-06
8.40048e-06
8.38415e-06
8.36932e-06
8.35585e-06
8.34361e-06
8.33249e-06
8.32241e-06
8.31331e-06
8.30508e-06
8.29763e-06
8.2909e-06
8.28479e-06
8.27926e-06
8.27424e-06
8.26973e-06
8.26569e-06
8.26213e-06
8.25899e-06
8.25619e-06
8.25368e-06
8.25142e-06
8.24941e-06
8.24764e-06
8.24612e-06
8.24482e-06
8.24378e-06
8.24299e-06
8.24246e-06
8.24216e-06
8.24211e-06
8.24218e-06
8.24234e-06
1.47055e-05
1.47077e-05
1.471e-05
1.47122e-05
1.47144e-05
1.47164e-05
1.47184e-05
1.47202e-05
1.47219e-05
1.47235e-05
1.4725e-05
1.47264e-05
1.47279e-05
1.47293e-05
1.47308e-05
1.47321e-05
1.47332e-05
1.47344e-05
1.47355e-05
1.47367e-05
1.47379e-05
1.47392e-05
1.47407e-05
1.47421e-05
1.47434e-05
1.47446e-05
1.47455e-05
1.47464e-05
1.47472e-05
1.47479e-05
1.47487e-05
1.47496e-05
1.47506e-05
1.47517e-05
1.47529e-05
1.4754e-05
1.47549e-05
1.47557e-05
1.74637e-05
1.74682e-05
1.74731e-05
1.7478e-05
1.7483e-05
1.74877e-05
1.74923e-05
1.74966e-05
1.75007e-05
1.75046e-05
1.75082e-05
1.75117e-05
1.7515e-05
1.75181e-05
1.75211e-05
1.75238e-05
1.75264e-05
1.75288e-05
1.75312e-05
1.75334e-05
1.75356e-05
1.75377e-05
1.75398e-05
1.75418e-05
1.75437e-05
1.75455e-05
1.7547e-05
1.75484e-05
1.75498e-05
1.7551e-05
1.75522e-05
1.75535e-05
1.75547e-05
1.7556e-05
1.75573e-05
1.75585e-05
1.75597e-05
1.75606e-05
1.88469e-05
1.88511e-05
1.8856e-05
1.88613e-05
1.88668e-05
1.88722e-05
1.88775e-05
1.88826e-05
1.88874e-05
1.88921e-05
1.88965e-05
1.89007e-05
1.89047e-05
1.89085e-05
1.8912e-05
1.89153e-05
1.89184e-05
1.89213e-05
1.8924e-05
1.89267e-05
1.89292e-05
1.89316e-05
1.89339e-05
1.89361e-05
1.89382e-05
1.89402e-05
1.8942e-05
1.89437e-05
1.89452e-05
1.89467e-05
1.89481e-05
1.89494e-05
1.89508e-05
1.89521e-05
1.89535e-05
1.89548e-05
1.89561e-05
1.89572e-05
1.95327e-05
1.95364e-05
1.95412e-05
1.95465e-05
1.95521e-05
1.95578e-05
1.95634e-05
1.95688e-05
1.9574e-05
1.9579e-05
1.95838e-05
1.95884e-05
1.95928e-05
1.95969e-05
1.96007e-05
1.96043e-05
1.96076e-05
1.96107e-05
1.96136e-05
1.96164e-05
1.9619e-05
1.96215e-05
1.9624e-05
1.96262e-05
1.96284e-05
1.96305e-05
1.96325e-05
1.96343e-05
1.9636e-05