/*--------------------------------*- C++ -*----------------------------------*\
| =========                 |                                                 |
| \\      /  F ield         | OpenFOAM: The Open Source CFD Toolbox           |
|  \\    /   O peration     | Version:  2.3.1                                 |
|   \\  /    A nd           | Web:      www.OpenFOAM.org                      |
|    \\/     M anipulation  |                                                 |
\*---------------------------------------------------------------------------*/
FoamFile
{
    version     2.0;
    format      ascii;
    class       volScalarField;
    location    "15";
    object      nut;
}
// * * * * * * * * * * * * * * * * * * * * * * * * * * * * * * * * * * * * * //

dimensions      [0 2 -1 0 0 0 0];

internalField   nonuniform List<scalar> 
38262
(
2.57143e-06
2.55856e-06
2.5471e-06
2.53685e-06
2.52766e-06
2.51938e-06
2.5119e-06
2.50513e-06
2.49898e-06
2.49339e-06
2.48829e-06
2.48364e-06
2.4794e-06
2.47553e-06
2.47201e-06
2.46879e-06
2.46585e-06
2.46316e-06
2.46071e-06
2.45848e-06
2.45645e-06
2.45462e-06
2.45297e-06
2.4515e-06
2.45019e-06
2.44902e-06
2.44798e-06
2.44706e-06
2.44623e-06
2.4455e-06
2.44487e-06
2.44433e-06
2.44388e-06
2.44353e-06
2.44329e-06
2.44315e-06
2.44311e-06
2.44312e-06
3.026e-06
3.01485e-06
3.0049e-06
2.99601e-06
2.98803e-06
2.98085e-06
2.97437e-06
2.96851e-06
2.96319e-06
2.95835e-06
2.95394e-06
2.94994e-06
2.9463e-06
2.943e-06
2.94001e-06
2.93727e-06
2.93478e-06
2.93251e-06
2.93046e-06
2.9286e-06
2.92693e-06
2.92545e-06
2.92414e-06
2.92299e-06
2.92197e-06
2.92106e-06
2.92024e-06
2.9195e-06
2.91884e-06
2.91828e-06
2.91781e-06
2.91744e-06
2.91718e-06
2.91703e-06
2.91699e-06
2.91701e-06
2.91711e-06
2.91727e-06
3.2115e-06
3.2021e-06
3.19372e-06
3.18621e-06
3.17948e-06
3.17342e-06
3.16795e-06
3.163e-06
3.15852e-06
3.15443e-06
3.15073e-06
3.14737e-06
3.14434e-06
3.14159e-06
3.1391e-06
3.13683e-06
3.13476e-06
3.13288e-06
3.13118e-06
3.12965e-06
3.12829e-06
3.12709e-06
3.12603e-06
3.1251e-06
3.12429e-06
3.12356e-06
3.12292e-06
3.12235e-06
3.12184e-06
3.12141e-06
3.12107e-06
3.12081e-06
3.12063e-06
3.12056e-06
3.12056e-06
3.12064e-06
3.12078e-06
3.12096e-06
3.29452e-06
3.28601e-06
3.27839e-06
3.27157e-06
3.26543e-06
3.25991e-06
3.25493e-06
3.25043e-06
3.24634e-06
3.24263e-06
3.23927e-06
3.23624e-06
3.23351e-06
3.23105e-06
3.22881e-06
3.22677e-06
3.22489e-06
3.2232e-06
3.22167e-06
3.22029e-06
3.21906e-06
3.21799e-06
3.21704e-06
3.21621e-06
3.21548e-06
3.21486e-06
3.21431e-06
3.21384e-06
3.21342e-06
3.21307e-06
3.21279e-06
3.21256e-06
3.21242e-06
3.21236e-06
3.21239e-06
3.21249e-06
3.21266e-06
3.21286e-06
3.32915e-06
3.32101e-06
3.31373e-06
3.3072e-06
3.30134e-06
3.29606e-06
3.29129e-06
3.28698e-06
3.28306e-06
3.27952e-06
3.27633e-06
3.27346e-06
3.27088e-06
3.26855e-06
3.26643e-06
3.26448e-06
3.2627e-06
3.26108e-06
3.25961e-06
3.25829e-06
3.25711e-06
3.25608e-06
3.25517e-06
3.25436e-06
3.25367e-06
3.25308e-06
3.25259e-06
3.25218e-06
3.25182e-06
3.25152e-06
3.25125e-06
3.25103e-06
3.25087e-06
3.2508e-06
3.25082e-06
3.25093e-06
3.25112e-06
3.25135e-06
3.33311e-06
3.32594e-06
3.31953e-06
3.31378e-06
3.30861e-06
3.30393e-06
3.29969e-06
3.29585e-06
3.29238e-06
3.28927e-06
3.28648e-06
3.28396e-06
3.28168e-06
3.27959e-06
3.27769e-06
3.27594e-06
3.27435e-06
3.2729e-06
3.27158e-06
3.27042e-06
3.26939e-06
3.26848e-06
3.26767e-06
3.26698e-06
3.26641e-06
3.26594e-06
3.26556e-06
3.26523e-06
3.26494e-06
3.26466e-06
3.26442e-06
3.26424e-06
3.26415e-06
3.26416e-06
3.26425e-06
3.26445e-06
3.26471e-06
3.33299e-06
3.32583e-06
3.31944e-06
3.31372e-06
3.30858e-06
3.30393e-06
3.29971e-06
3.29589e-06
3.29245e-06
3.28936e-06
3.28659e-06
3.28409e-06
3.28181e-06
3.27972e-06
3.27781e-06
3.27606e-06
3.27447e-06
3.27302e-06
3.2717e-06
3.27052e-06
3.26948e-06
3.26855e-06
3.26773e-06
3.26703e-06
3.26646e-06
3.26599e-06
3.26561e-06
3.26528e-06
3.26498e-06
3.26468e-06
3.26441e-06
3.2642e-06
3.26409e-06
3.26408e-06
3.26416e-06
3.26437e-06
3.26464e-06
3.32071e-06
3.31343e-06
3.30694e-06
3.30117e-06
3.29598e-06
3.29129e-06
3.28703e-06
3.28318e-06
3.2797e-06
3.27659e-06
3.27378e-06
3.27124e-06
3.26892e-06
3.26679e-06
3.26483e-06
3.26304e-06
3.26142e-06
3.25995e-06
3.25861e-06
3.25741e-06
3.25634e-06
3.25539e-06
3.25455e-06
3.25384e-06
3.25324e-06
3.25274e-06
3.25233e-06
3.25197e-06
3.25163e-06
3.2513e-06
3.251e-06
3.25076e-06
3.25062e-06
3.2506e-06
3.25067e-06
3.25086e-06
3.25115e-06
3.25151e-06
3.28558e-06
3.27797e-06
3.2712e-06
3.26518e-06
3.25978e-06
3.2549e-06
3.25048e-06
3.24647e-06
3.24286e-06
3.2396e-06
3.23667e-06
3.23402e-06
3.23158e-06
3.22933e-06
3.22726e-06
3.22538e-06
3.22369e-06
3.22216e-06
3.22077e-06
3.21951e-06
3.21838e-06
3.21737e-06
3.2165e-06
3.21574e-06
3.2151e-06
3.21454e-06
3.21407e-06
3.21364e-06
3.21325e-06
3.21287e-06
3.21253e-06
3.21225e-06
3.21207e-06
3.21203e-06
3.21208e-06
3.21226e-06
3.21254e-06
3.21291e-06
3.20162e-06
3.19324e-06
3.18578e-06
3.17915e-06
3.17321e-06
3.16784e-06
3.16298e-06
3.15857e-06
3.15459e-06
3.15101e-06
3.14777e-06
3.14483e-06
3.14213e-06
3.13965e-06
3.13736e-06
3.13528e-06
3.13341e-06
3.13172e-06
3.13019e-06
3.1288e-06
3.12755e-06
3.12643e-06
3.12545e-06
3.1246e-06
3.12386e-06
3.12322e-06
3.12264e-06
3.12212e-06
3.12164e-06
3.12118e-06
3.12078e-06
3.12044e-06
3.12021e-06
3.12011e-06
3.12014e-06
3.12027e-06
3.12053e-06
3.1209e-06
3.01434e-06
3.00437e-06
2.99549e-06
2.98757e-06
2.98048e-06
2.97407e-06
2.96826e-06
2.963e-06
2.95824e-06
2.95395e-06
2.95007e-06
2.94654e-06
2.94331e-06
2.94034e-06
2.93761e-06
2.93513e-06
2.93288e-06
2.93086e-06
2.92902e-06
2.92736e-06
2.92586e-06
2.92451e-06
2.92332e-06
2.92229e-06
2.92139e-06
2.92059e-06
2.91988e-06
2.91922e-06
2.9186e-06
2.91803e-06
2.91751e-06
2.91706e-06
2.91673e-06
2.91653e-06
2.91649e-06
2.91655e-06
2.91674e-06
2.91708e-06
2.55818e-06
2.54665e-06
2.53636e-06
2.52716e-06
2.5189e-06
2.51145e-06
2.50472e-06
2.49861e-06
2.49308e-06
2.48806e-06
2.48351e-06
2.47937e-06
2.4756e-06
2.47215e-06
2.469e-06
2.46611e-06
2.46346e-06
2.46105e-06
2.45886e-06
2.45685e-06
2.45503e-06
2.45337e-06
2.45188e-06
2.45055e-06
2.44937e-06
2.44832e-06
2.44738e-06
2.44655e-06
2.44579e-06
2.44511e-06
2.44449e-06
2.44393e-06
2.44346e-06
2.44308e-06
2.44281e-06
2.44269e-06
2.4427e-06
2.44282e-06
6.30908e-06
6.2975e-06
6.28711e-06
6.27776e-06
6.2693e-06
6.26164e-06
6.25467e-06
6.24831e-06
6.24251e-06
6.2372e-06
6.23234e-06
6.2279e-06
6.22386e-06
6.22019e-06
6.21685e-06
6.21381e-06
6.21105e-06
6.20854e-06
6.20627e-06
6.2042e-06
6.20235e-06
6.20071e-06
6.19927e-06
6.19801e-06
6.1969e-06
6.19591e-06
6.19503e-06
6.19425e-06
6.19357e-06
6.19299e-06
6.19252e-06
6.19217e-06
6.19193e-06
6.19181e-06
6.19179e-06
6.19182e-06
6.19191e-06
6.19206e-06
1.31345e-05
1.32454e-05
1.33419e-05
1.34264e-05
1.35008e-05
1.35666e-05
1.3625e-05
1.36769e-05
1.37233e-05
1.37648e-05
1.38022e-05
1.38361e-05
1.38672e-05
1.38958e-05
1.39218e-05
1.39456e-05
1.39674e-05
1.39876e-05
1.40063e-05
1.40237e-05
1.40401e-05
1.40557e-05
1.40704e-05
1.40841e-05
1.40965e-05
1.41076e-05
1.41172e-05
1.41257e-05
1.41333e-05
1.41406e-05
1.41477e-05
1.41548e-05
1.4162e-05
1.41692e-05
1.41761e-05
1.41824e-05
1.41875e-05
1.41913e-05
1.68147e-05
1.69725e-05
1.711e-05
1.72306e-05
1.7337e-05
1.74313e-05
1.75151e-05
1.75899e-05
1.76568e-05
1.77167e-05
1.7771e-05
1.78205e-05
1.78659e-05
1.79074e-05
1.79452e-05
1.79795e-05
1.80109e-05
1.80399e-05
1.80669e-05
1.8092e-05
1.81157e-05
1.81379e-05
1.81588e-05
1.81781e-05
1.81958e-05
1.82118e-05
1.8226e-05
1.82387e-05
1.82501e-05
1.82609e-05
1.82713e-05
1.82813e-05
1.82912e-05
1.8301e-05
1.83105e-05
1.83192e-05
1.83264e-05
1.83319e-05
1.86867e-05
1.88677e-05
1.90255e-05
1.91638e-05
1.92858e-05
1.9394e-05
1.94904e-05
1.95764e-05
1.96535e-05
1.97228e-05
1.97859e-05
1.98437e-05
1.98967e-05
1.99449e-05
1.99886e-05
2.00281e-05
2.00641e-05
2.00974e-05
2.01282e-05
2.01568e-05
2.01838e-05
2.02092e-05
2.02328e-05
2.02547e-05
2.0275e-05
2.02937e-05
2.03106e-05
2.03258e-05
2.03396e-05
2.03523e-05
2.03641e-05
2.03752e-05
2.03861e-05
2.03969e-05
2.04076e-05
2.04177e-05
2.04265e-05
2.04334e-05
1.95851e-05
1.97765e-05
1.99435e-05
2.009e-05
2.02194e-05
2.03342e-05
2.04364e-05
2.05275e-05
2.06093e-05
2.06834e-05
2.0751e-05
2.0813e-05
2.08697e-05
2.09211e-05
2.09675e-05
2.10094e-05
2.10476e-05
2.10825e-05
2.11147e-05
2.11446e-05
2.11728e-05
2.11992e-05
2.12237e-05
2.12465e-05
2.12679e-05
2.1288e-05
2.13067e-05
2.13237e-05
2.13389e-05
2.13524e-05
2.13645e-05
2.13756e-05
2.13864e-05
2.13974e-05
2.14085e-05
2.14194e-05
2.14293e-05
2.14374e-05
2.01301e-05
2.03006e-05
2.04508e-05
2.05837e-05
2.07014e-05
2.0806e-05
2.08993e-05
2.09832e-05
2.10595e-05
2.11293e-05
2.11932e-05
2.12512e-05
2.13037e-05
2.13511e-05
2.13939e-05
2.14327e-05
2.14681e-05
2.15005e-05
2.15306e-05
2.15588e-05
2.15853e-05
2.16098e-05
2.16325e-05
2.16542e-05
2.1675e-05
2.16946e-05
2.17124e-05
2.17282e-05
2.17418e-05
2.17536e-05
2.17642e-05
2.17746e-05
2.17853e-05
2.17964e-05
2.18077e-05
2.18185e-05
2.18277e-05
2.01276e-05
2.02987e-05
2.04498e-05
2.05838e-05
2.07025e-05
2.08078e-05
2.09018e-05
2.09864e-05
2.10633e-05
2.11336e-05
2.11977e-05
2.12558e-05
2.13081e-05
2.13551e-05
2.13976e-05
2.14362e-05
2.14714e-05
2.15036e-05
2.15333e-05
2.15611e-05
2.15871e-05
2.16111e-05
2.16336e-05
2.16551e-05
2.16758e-05
2.16953e-05
2.17131e-05
2.17287e-05
2.17419e-05
2.1753e-05
2.1763e-05
2.17728e-05
2.17832e-05
2.17941e-05
2.18056e-05
2.1817e-05
2.1827e-05
1.97702e-05
1.99385e-05
2.00876e-05
2.02201e-05
2.03376e-05
2.04417e-05
2.05346e-05
2.06181e-05
2.0694e-05
2.07631e-05
2.0826e-05
2.08827e-05
2.09335e-05
2.0979e-05
2.102e-05
2.10576e-05
2.1092e-05
2.11235e-05
2.11524e-05
2.11793e-05
2.12043e-05
2.12276e-05
2.12496e-05
2.12705e-05
2.12903e-05
2.13088e-05
2.13256e-05
2.13402e-05
2.13525e-05
2.13628e-05
2.1372e-05
2.13812e-05
2.1391e-05
2.14018e-05
2.14133e-05
2.1425e-05
2.14355e-05
2.14441e-05
1.88598e-05
1.90195e-05
1.91612e-05
1.92873e-05
1.93992e-05
1.94984e-05
1.95867e-05
1.9666e-05
1.97379e-05
1.98032e-05
1.98625e-05
1.99157e-05
1.99632e-05
2.00055e-05
2.00437e-05
2.00788e-05
2.01112e-05
2.0141e-05
2.01683e-05
2.01935e-05
2.02168e-05
2.02386e-05
2.02592e-05
2.02786e-05
2.02967e-05
2.03134e-05
2.03282e-05
2.03411e-05
2.0352e-05
2.03612e-05
2.03694e-05
2.03778e-05
2.0387e-05
2.03973e-05
2.04084e-05
2.04198e-05
2.04304e-05
2.04392e-05
1.69652e-05
1.71048e-05
1.72287e-05
1.7339e-05
1.7437e-05
1.75237e-05
1.76007e-05
1.76698e-05
1.77323e-05
1.77891e-05
1.78404e-05
1.78865e-05
1.79274e-05
1.79638e-05
1.79966e-05
1.80268e-05
1.80549e-05
1.80808e-05
1.81046e-05
1.81263e-05
1.81464e-05
1.81651e-05
1.81828e-05
1.81995e-05
1.82148e-05
1.82286e-05
1.82407e-05
1.8251e-05
1.82598e-05
1.82673e-05
1.82741e-05
1.82811e-05
1.82892e-05
1.82983e-05
1.83083e-05
1.83186e-05
1.83283e-05
1.83363e-05
1.32402e-05
1.33381e-05
1.34249e-05
1.35021e-05
1.35705e-05
1.36308e-05
1.36841e-05
1.37319e-05
1.37751e-05
1.38144e-05
1.38498e-05
1.38815e-05
1.39097e-05
1.39347e-05
1.39572e-05
1.39779e-05
1.39972e-05
1.40152e-05
1.40318e-05
1.4047e-05
1.4061e-05
1.40741e-05
1.40865e-05
1.40984e-05
1.41092e-05
1.41189e-05
1.41271e-05
1.41339e-05
1.41396e-05
1.41444e-05
1.41488e-05
1.41535e-05
1.4159e-05
1.41656e-05
1.4173e-05
1.41807e-05
1.4188e-05
1.41938e-05
6.29676e-06
6.28637e-06
6.27709e-06
6.26877e-06
6.26126e-06
6.25444e-06
6.24822e-06
6.24256e-06
6.23743e-06
6.23278e-06
6.22856e-06
6.22469e-06
6.22115e-06
6.21789e-06
6.21489e-06
6.21213e-06
6.20963e-06
6.20735e-06
6.20526e-06
6.20336e-06
6.20162e-06
6.20006e-06
6.19868e-06
6.19747e-06
6.1964e-06
6.19545e-06
6.19458e-06
6.19378e-06
6.19306e-06
6.1924e-06
6.19183e-06
6.19137e-06
6.19106e-06
6.19095e-06
6.19099e-06
6.19117e-06
6.19145e-06
6.19182e-06
6.81032e-06
6.79858e-06
6.78806e-06
6.7786e-06
6.77007e-06
6.76235e-06
6.75535e-06
6.74898e-06
6.74318e-06
6.73789e-06
6.73305e-06
6.72864e-06
6.72463e-06
6.72099e-06
6.71767e-06
6.71466e-06
6.71191e-06
6.70941e-06
6.70714e-06
6.70509e-06
6.70325e-06
6.70161e-06
6.70016e-06
6.69889e-06
6.69777e-06
6.69677e-06
6.69587e-06
6.69507e-06
6.69437e-06
6.69377e-06
6.69328e-06
6.6929e-06
6.69263e-06
6.69247e-06
6.69243e-06
6.69245e-06
6.69254e-06
6.69269e-06
2.18991e-05
2.20133e-05
2.21122e-05
2.21982e-05
2.22737e-05
2.23403e-05
2.23991e-05
2.24513e-05
2.24978e-05
2.25394e-05
2.25769e-05
2.2611e-05
2.26422e-05
2.26709e-05
2.26971e-05
2.27211e-05
2.27429e-05
2.27632e-05
2.2782e-05
2.27997e-05
2.28164e-05
2.28325e-05
2.2848e-05
2.28626e-05
2.28758e-05
2.28875e-05
2.28976e-05
2.29064e-05
2.29143e-05
2.29217e-05
2.29292e-05
2.29368e-05
2.29447e-05
2.29529e-05
2.29611e-05
2.29687e-05
2.29752e-05
2.29804e-05
3.06949e-05
3.08793e-05
3.10395e-05
3.11793e-05
3.13023e-05
3.14109e-05
3.15072e-05
3.15929e-05
3.16695e-05
3.17381e-05
3.18e-05
3.18565e-05
3.19083e-05
3.19556e-05
3.19988e-05
3.2038e-05
3.20738e-05
3.21069e-05
3.21378e-05
3.21665e-05
3.21937e-05
3.22194e-05
3.22437e-05
3.22663e-05
3.22872e-05
3.23061e-05
3.2323e-05
3.23381e-05
3.23518e-05
3.23647e-05
3.23772e-05
3.23893e-05
3.24015e-05
3.24137e-05
3.24257e-05
3.2437e-05
3.24468e-05
3.24549e-05
3.54166e-05
3.5644e-05
3.58417e-05
3.60147e-05
3.61669e-05
3.63015e-05
3.64211e-05
3.65277e-05
3.66231e-05
3.67089e-05
3.67868e-05
3.6858e-05
3.69231e-05
3.69825e-05
3.70364e-05
3.70852e-05
3.71298e-05
3.71708e-05
3.72089e-05
3.72443e-05
3.72777e-05
3.73092e-05
3.73387e-05
3.73662e-05
3.73917e-05
3.74154e-05
3.7437e-05
3.74566e-05
3.74744e-05
3.74908e-05
3.75061e-05
3.75208e-05
3.75351e-05
3.75495e-05
3.75638e-05
3.75776e-05
3.75901e-05
3.76007e-05
3.7782e-05
3.80318e-05
3.82494e-05
3.84401e-05
3.86081e-05
3.87569e-05
3.88891e-05
3.9007e-05
3.91126e-05
3.9208e-05
3.9295e-05
3.93746e-05
3.94473e-05
3.95134e-05
3.95731e-05
3.96271e-05
3.96763e-05
3.97213e-05
3.97629e-05
3.98015e-05
3.98379e-05
3.98721e-05
3.9904e-05
3.99337e-05
3.99617e-05
3.99881e-05
4.00127e-05
4.00352e-05
4.00555e-05
4.00738e-05
4.00903e-05
4.01057e-05
4.01207e-05
4.01359e-05
4.01513e-05
4.01666e-05
4.01809e-05
4.01935e-05
3.89929e-05
3.9219e-05
3.94177e-05
3.95931e-05
3.97485e-05
3.98863e-05
4.00092e-05
4.01196e-05
4.02197e-05
4.0311e-05
4.03944e-05
4.04703e-05
4.05391e-05
4.06011e-05
4.06572e-05
4.07082e-05
4.07547e-05
4.07974e-05
4.0837e-05
4.08742e-05
4.09091e-05
4.09416e-05
4.09719e-05
4.10008e-05
4.10284e-05
4.10544e-05
4.10783e-05
4.10997e-05
4.11185e-05
4.11351e-05
4.11502e-05
4.1165e-05
4.11801e-05
4.11958e-05
4.12118e-05
4.12274e-05
4.12415e-05
3.89898e-05
3.92165e-05
3.94163e-05
3.95931e-05
3.97497e-05
3.98885e-05
4.00122e-05
4.01235e-05
4.02244e-05
4.03164e-05
4.04002e-05
4.04762e-05
4.05447e-05
4.06064e-05
4.06621e-05
4.07128e-05
4.0759e-05
4.08014e-05
4.08406e-05
4.08773e-05
4.09116e-05
4.09435e-05
4.09735e-05
4.10021e-05
4.10295e-05
4.10555e-05
4.10793e-05
4.11004e-05
4.11187e-05
4.11345e-05
4.11487e-05
4.11627e-05
4.11773e-05
4.11927e-05
4.12089e-05
4.12253e-05
4.12404e-05
3.80237e-05
3.82429e-05
3.84366e-05
3.86083e-05
3.87606e-05
3.88954e-05
3.90155e-05
3.91233e-05
3.92211e-05
3.931e-05
3.93908e-05
3.94637e-05
3.95292e-05
3.95879e-05
3.96408e-05
3.96892e-05
3.97335e-05
3.97741e-05
3.98116e-05
3.98465e-05
3.9879e-05
3.99094e-05
3.9938e-05
3.99653e-05
3.99913e-05
4.00156e-05
4.00378e-05
4.00573e-05
4.00741e-05
4.00884e-05
4.01013e-05
4.01141e-05
4.01277e-05
4.01425e-05
4.01584e-05
4.01748e-05
4.01902e-05
4.02042e-05
3.56337e-05
3.58336e-05
3.60106e-05
3.61676e-05
3.63069e-05
3.64301e-05
3.65397e-05
3.66379e-05
3.67267e-05
3.68074e-05
3.68805e-05
3.69463e-05
3.7005e-05
3.70574e-05
3.71047e-05
3.71479e-05
3.71879e-05
3.72247e-05
3.72586e-05
3.72899e-05
3.7319e-05
3.73463e-05
3.73722e-05
3.73967e-05
3.74197e-05
3.74409e-05
3.746e-05
3.74766e-05
3.74908e-05
3.75029e-05
3.75138e-05
3.75248e-05
3.75369e-05
3.75505e-05
3.75653e-05
3.75807e-05
3.75957e-05
3.76093e-05
3.08697e-05
3.1032e-05
3.11757e-05
3.13033e-05
3.14164e-05
3.15162e-05
3.16047e-05
3.16839e-05
3.17555e-05
3.18204e-05
3.18791e-05
3.19317e-05
3.19785e-05
3.20201e-05
3.20575e-05
3.20919e-05
3.21239e-05
3.21535e-05
3.21808e-05
3.22059e-05
3.22292e-05
3.22511e-05
3.2272e-05
3.22918e-05
3.23101e-05
3.23268e-05
3.23414e-05
3.23539e-05
3.23643e-05
3.23731e-05
3.23812e-05
3.23895e-05
3.2399e-05
3.24102e-05
3.24226e-05
3.24359e-05
3.24489e-05
3.24608e-05
2.20064e-05
2.21066e-05
2.21954e-05
2.22741e-05
2.23436e-05
2.24045e-05
2.24583e-05
2.25063e-05
2.25497e-05
2.25892e-05
2.26248e-05
2.26566e-05
2.26848e-05
2.27096e-05
2.27319e-05
2.27525e-05
2.27718e-05
2.279e-05
2.28069e-05
2.28225e-05
2.28371e-05
2.28511e-05
2.28647e-05
2.28778e-05
2.289e-05
2.29007e-05
2.29097e-05
2.29169e-05
2.29225e-05
2.2927e-05
2.29308e-05
2.29351e-05
2.29405e-05
2.29476e-05
2.29561e-05
2.29652e-05
2.29744e-05
2.29828e-05
6.79793e-06
6.7874e-06
6.77799e-06
6.76957e-06
6.76198e-06
6.75509e-06
6.74883e-06
6.74314e-06
6.73799e-06
6.73332e-06
6.72908e-06
6.72521e-06
6.72166e-06
6.71841e-06
6.71542e-06
6.71268e-06
6.7102e-06
6.70794e-06
6.70588e-06
6.70401e-06
6.70231e-06
6.70078e-06
6.69943e-06
6.69825e-06
6.69721e-06
6.69628e-06
6.69544e-06
6.69466e-06
6.69395e-06
6.6933e-06
6.69272e-06
6.69224e-06
6.6919e-06
6.69172e-06
6.69173e-06
6.69184e-06
6.6921e-06
6.69248e-06
7.09399e-06
7.08179e-06
7.07088e-06
7.06109e-06
7.05226e-06
7.0443e-06
7.03708e-06
7.03053e-06
7.02456e-06
7.01913e-06
7.01418e-06
7.00968e-06
7.00558e-06
7.00186e-06
6.99848e-06
6.99541e-06
6.99261e-06
6.99006e-06
6.98775e-06
6.98566e-06
6.98378e-06
6.9821e-06
6.98062e-06
6.97932e-06
6.97816e-06
6.97713e-06
6.9762e-06
6.97538e-06
6.97465e-06
6.97403e-06
6.97351e-06
6.9731e-06
6.97281e-06
6.97263e-06
6.97256e-06
6.97257e-06
6.97265e-06
6.97279e-06
2.79525e-05
2.80591e-05
2.81513e-05
2.82315e-05
2.83017e-05
2.83636e-05
2.84184e-05
2.84669e-05
2.85102e-05
2.85489e-05
2.85838e-05
2.86156e-05
2.86448e-05
2.86716e-05
2.86963e-05
2.87186e-05
2.87391e-05
2.8758e-05
2.87758e-05
2.87925e-05
2.88084e-05
2.88239e-05
2.8839e-05
2.88534e-05
2.88664e-05
2.88777e-05
2.88874e-05
2.88959e-05
2.89035e-05
2.89106e-05
2.89177e-05
2.89251e-05
2.8933e-05
2.89413e-05
2.89496e-05
2.89574e-05
2.8964e-05
2.89693e-05
4.15566e-05
4.17416e-05
4.19023e-05
4.20426e-05
4.21657e-05
4.22745e-05
4.23709e-05
4.24566e-05
4.25332e-05
4.26018e-05
4.26638e-05
4.27204e-05
4.27721e-05
4.28195e-05
4.28628e-05
4.29021e-05
4.29381e-05
4.29714e-05
4.30024e-05
4.30314e-05
4.30588e-05
4.30849e-05
4.31097e-05
4.31329e-05
4.31544e-05
4.31738e-05
4.31913e-05
4.3207e-05
4.32213e-05
4.32347e-05
4.32477e-05
4.32604e-05
4.32732e-05
4.32862e-05
4.32989e-05
4.3311e-05
4.33219e-05
4.33312e-05
4.93046e-05
4.95448e-05
4.9754e-05
4.99369e-05
5.00978e-05
5.02401e-05
5.03664e-05
5.0479e-05
5.05797e-05
5.06703e-05
5.07524e-05
5.08274e-05
5.0896e-05
5.09586e-05
5.10155e-05
5.10672e-05
5.11143e-05
5.11578e-05
5.1198e-05
5.12356e-05
5.1271e-05
5.13044e-05
5.13358e-05
5.13652e-05
5.13927e-05
5.14181e-05
5.14414e-05
5.14626e-05
5.1482e-05
5.15e-05
5.15168e-05
5.1533e-05
5.15489e-05
5.15648e-05
5.15807e-05
5.15961e-05
5.16103e-05
5.16229e-05
5.33454e-05
5.36177e-05
5.38552e-05
5.40634e-05
5.42469e-05
5.44093e-05
5.45536e-05
5.46822e-05
5.47975e-05
5.49016e-05
5.49963e-05
5.50829e-05
5.51618e-05
5.52337e-05
5.52987e-05
5.53577e-05
5.54114e-05
5.54607e-05
5.55061e-05
5.55484e-05
5.55882e-05
5.56256e-05
5.56606e-05
5.56933e-05
5.57242e-05
5.57533e-05
5.57804e-05
5.58053e-05
5.5828e-05
5.58486e-05
5.58674e-05
5.58851e-05
5.59023e-05
5.59196e-05
5.59372e-05
5.59546e-05
5.59713e-05
5.59865e-05
5.53065e-05
5.55568e-05
5.57768e-05
5.59711e-05
5.61432e-05
5.6296e-05
5.64322e-05
5.65545e-05
5.66653e-05
5.67661e-05
5.68582e-05
5.69419e-05
5.70179e-05
5.70865e-05
5.71486e-05
5.72051e-05
5.72567e-05
5.73042e-05
5.73482e-05
5.73896e-05
5.74283e-05
5.74645e-05
5.74984e-05
5.75307e-05
5.75614e-05
5.75903e-05
5.7617e-05
5.76412e-05
5.76627e-05
5.76819e-05
5.76996e-05
5.77169e-05
5.77344e-05
5.77525e-05
5.7771e-05
5.77892e-05
5.78063e-05
5.53033e-05
5.55541e-05
5.57753e-05
5.5971e-05
5.61444e-05
5.62983e-05
5.64354e-05
5.65586e-05
5.66702e-05
5.67718e-05
5.68643e-05
5.69482e-05
5.7024e-05
5.70922e-05
5.7154e-05
5.72101e-05
5.72614e-05
5.73086e-05
5.73522e-05
5.73929e-05
5.74311e-05
5.74667e-05
5.75002e-05
5.75322e-05
5.75627e-05
5.75915e-05
5.76181e-05
5.76419e-05
5.76628e-05
5.76811e-05
5.76979e-05
5.77143e-05
5.77313e-05
5.77491e-05
5.77678e-05
5.77868e-05
5.78049e-05
5.36092e-05
5.38483e-05
5.40595e-05
5.42468e-05
5.44128e-05
5.456e-05
5.46911e-05
5.48088e-05
5.49153e-05
5.50121e-05
5.51e-05
5.51794e-05
5.52508e-05
5.53148e-05
5.53727e-05
5.54255e-05
5.54739e-05
5.55184e-05
5.55594e-05
5.55976e-05
5.56333e-05
5.56667e-05
5.56983e-05
5.57284e-05
5.57569e-05
5.57836e-05
5.58081e-05
5.58298e-05
5.58487e-05
5.58651e-05
5.58801e-05
5.58948e-05
5.59104e-05
5.59273e-05
5.59454e-05
5.59641e-05
5.59824e-05
5.59997e-05
4.95338e-05
4.97452e-05
4.99321e-05
5.00981e-05
5.02452e-05
5.03755e-05
5.04913e-05
5.05951e-05
5.06889e-05
5.0774e-05
5.08511e-05
5.09205e-05
5.09825e-05
5.1038e-05
5.10881e-05
5.11338e-05
5.1176e-05
5.1215e-05
5.12509e-05
5.12841e-05
5.13151e-05
5.13443e-05
5.1372e-05
5.13983e-05
5.1423e-05
5.14458e-05
5.14663e-05
5.14842e-05
5.14997e-05
5.15129e-05
5.15251e-05
5.15373e-05
5.15506e-05
5.15656e-05
5.1582e-05
5.15994e-05
5.16166e-05
5.1633e-05
4.17311e-05
4.18939e-05
4.20382e-05
4.21662e-05
4.22796e-05
4.23798e-05
4.24686e-05
4.2548e-05
4.26198e-05
4.26848e-05
4.27436e-05
4.27963e-05
4.28433e-05
4.28851e-05
4.29227e-05
4.29572e-05
4.29891e-05
4.30188e-05
4.30462e-05
4.30715e-05
4.30952e-05
4.31176e-05
4.31391e-05
4.31596e-05
4.31786e-05
4.31958e-05
4.32108e-05
4.32236e-05
4.32341e-05
4.3243e-05
4.3251e-05
4.32595e-05
4.32693e-05
4.3281e-05
4.32945e-05
4.33089e-05
4.33235e-05
4.33373e-05
2.80514e-05
2.81451e-05
2.82282e-05
2.8302e-05
2.83671e-05
2.84242e-05
2.84744e-05
2.85194e-05
2.85601e-05
2.85971e-05
2.86305e-05
2.86602e-05
2.86865e-05
2.87097e-05
2.87304e-05
2.87495e-05
2.87674e-05
2.87844e-05
2.88002e-05
2.8815e-05
2.88289e-05
2.88425e-05
2.8856e-05
2.88691e-05
2.88812e-05
2.88917e-05
2.89002e-05
2.89067e-05
2.89114e-05
2.89147e-05
2.89176e-05
2.89209e-05
2.89259e-05
2.89329e-05
2.89417e-05
2.89515e-05
2.89615e-05
2.8971e-05
7.08115e-06
7.07023e-06
7.06049e-06
7.05178e-06
7.04394e-06
7.03683e-06
7.03037e-06
7.02451e-06
7.0192e-06
7.0144e-06
7.01005e-06
7.00607e-06
7.00244e-06
6.9991e-06
6.99604e-06
6.99325e-06
6.99072e-06
6.98842e-06
6.98633e-06
6.98443e-06
6.98271e-06
6.98117e-06
6.97981e-06
6.97861e-06
6.97756e-06
6.97663e-06
6.97577e-06
6.97498e-06
6.97425e-06
6.97357e-06
6.97297e-06
6.97246e-06
6.97209e-06
6.97188e-06
6.97186e-06
6.97195e-06
6.97219e-06
6.97255e-06
7.2699e-06
7.25715e-06
7.24574e-06
7.23549e-06
7.22626e-06
7.21792e-06
7.21037e-06
7.20351e-06
7.19728e-06
7.1916e-06
7.18644e-06
7.18174e-06
7.17748e-06
7.17365e-06
7.17018e-06
7.16702e-06
7.16415e-06
7.16154e-06
7.15917e-06
7.15702e-06
7.15509e-06
7.15336e-06
7.15184e-06
7.1505e-06
7.14931e-06
7.14824e-06
7.14728e-06
7.14642e-06
7.14567e-06
7.14502e-06
7.14447e-06
7.14404e-06
7.14372e-06
7.14351e-06
7.14341e-06
7.14341e-06
7.14346e-06
7.14357e-06
3.22704e-05
3.23651e-05
3.24475e-05
3.25195e-05
3.25827e-05
3.26386e-05
3.26882e-05
3.27322e-05
3.27716e-05
3.2807e-05
3.2839e-05
3.28682e-05
3.28948e-05
3.29192e-05
3.29417e-05
3.2962e-05
3.29805e-05
3.29976e-05
3.30138e-05
3.30291e-05
3.30438e-05
3.30583e-05
3.30726e-05
3.30863e-05
3.30987e-05
3.31093e-05
3.31184e-05
3.31264e-05
3.31335e-05
3.31402e-05
3.31469e-05
3.31538e-05
3.31613e-05
3.31692e-05
3.31771e-05
3.31843e-05
3.31903e-05
3.31949e-05
5.00261e-05
5.01991e-05
5.03496e-05
5.04811e-05
5.05966e-05
5.06986e-05
5.07891e-05
5.08695e-05
5.09414e-05
5.10059e-05
5.10643e-05
5.11175e-05
5.11662e-05
5.12109e-05
5.12517e-05
5.1289e-05
5.13231e-05
5.13546e-05
5.1384e-05
5.14116e-05
5.14377e-05
5.14626e-05
5.14865e-05
5.15089e-05
5.15297e-05
5.15485e-05
5.15655e-05
5.15807e-05
5.15948e-05
5.16079e-05
5.16205e-05
5.1633e-05
5.16455e-05
5.16582e-05
5.16707e-05
5.16825e-05
5.16931e-05
5.17024e-05
6.06818e-05
6.09163e-05
6.11206e-05
6.12995e-05
6.1457e-05
6.15963e-05
6.172e-05
6.18302e-05
6.19289e-05
6.20177e-05
6.20982e-05
6.21716e-05
6.22388e-05
6.23001e-05
6.2356e-05
6.24068e-05
6.24532e-05
6.2496e-05
6.25357e-05
6.25728e-05
6.26077e-05
6.26407e-05
6.26718e-05
6.27011e-05
6.27283e-05
6.27536e-05
6.27769e-05
6.27981e-05
6.28177e-05
6.28358e-05
6.28529e-05
6.28693e-05
6.28854e-05
6.29016e-05
6.29176e-05
6.29331e-05
6.29476e-05
6.29607e-05
6.6449e-05
6.67221e-05
6.69606e-05
6.71699e-05
6.73547e-05
6.75183e-05
6.76636e-05
6.77933e-05
6.79096e-05
6.80146e-05
6.811e-05
6.8197e-05
6.82764e-05
6.83487e-05
6.84143e-05
6.84739e-05
6.85282e-05
6.8578e-05
6.86241e-05
6.86669e-05
6.87072e-05
6.8745e-05
6.87805e-05
6.88138e-05
6.88451e-05
6.88746e-05
6.89021e-05
6.89275e-05
6.89507e-05
6.8972e-05
6.89916e-05
6.901e-05
6.9028e-05
6.9046e-05
6.90641e-05
6.90821e-05
6.90994e-05
6.91156e-05
6.91941e-05
6.94488e-05
6.96729e-05
6.98711e-05
7.00468e-05
7.02029e-05
7.03422e-05
7.04674e-05
7.05805e-05
7.06834e-05
7.07772e-05
7.08626e-05
7.094e-05
7.10101e-05
7.10736e-05
7.11315e-05
7.11844e-05
7.12332e-05
7.12784e-05
7.13208e-05
7.13605e-05
7.13976e-05
7.14326e-05
7.14657e-05
7.14971e-05
7.15267e-05
7.1554e-05
7.15789e-05
7.16013e-05
7.16216e-05
7.16404e-05
7.16587e-05
7.16772e-05
7.16961e-05
7.17154e-05
7.17345e-05
7.17528e-05
6.9191e-05
6.94463e-05
6.96715e-05
6.9871e-05
7.0048e-05
7.02052e-05
7.03454e-05
7.04714e-05
7.05854e-05
7.0689e-05
7.07833e-05
7.08689e-05
7.09462e-05
7.1016e-05
7.10792e-05
7.11367e-05
7.11893e-05
7.12377e-05
7.12825e-05
7.13242e-05
7.13633e-05
7.14e-05
7.14345e-05
7.14673e-05
7.14985e-05
7.15278e-05
7.1555e-05
7.15795e-05
7.16012e-05
7.16206e-05
7.16385e-05
7.16559e-05
7.16738e-05
7.16926e-05
7.17121e-05
7.17319e-05
7.17513e-05
6.67138e-05
6.69539e-05
6.71662e-05
6.73545e-05
6.75217e-05
6.767e-05
6.78023e-05
6.7921e-05
6.80283e-05
6.81257e-05
6.82142e-05
6.82942e-05
6.83662e-05
6.84309e-05
6.84894e-05
6.85427e-05
6.85917e-05
6.86367e-05
6.86782e-05
6.87169e-05
6.8753e-05
6.8787e-05
6.8819e-05
6.88495e-05
6.88784e-05
6.89054e-05
6.89301e-05
6.89521e-05
6.89715e-05
6.89886e-05
6.90043e-05
6.90198e-05
6.9036e-05
6.90536e-05
6.90723e-05
6.90918e-05
6.91111e-05
6.91296e-05
6.09053e-05
6.11118e-05
6.12947e-05
6.14571e-05
6.16012e-05
6.1729e-05
6.18426e-05
6.19445e-05
6.20365e-05
6.21199e-05
6.21955e-05
6.22636e-05
6.23246e-05
6.23792e-05
6.24285e-05
6.24735e-05
6.2515e-05
6.25533e-05
6.25885e-05
6.26213e-05
6.26519e-05
6.26808e-05
6.27083e-05
6.27343e-05
6.27588e-05
6.27813e-05
6.28016e-05
6.28193e-05
6.28346e-05
6.28478e-05
6.286e-05
6.28724e-05
6.28859e-05
6.29012e-05
6.2918e-05
6.29357e-05
6.29536e-05
6.29709e-05
5.01884e-05
5.03411e-05
5.04765e-05
5.0597e-05
5.07037e-05
5.07981e-05
5.08818e-05
5.09567e-05
5.10244e-05
5.10858e-05
5.11413e-05
5.11911e-05
5.12354e-05
5.1275e-05
5.13106e-05
5.13432e-05
5.13734e-05
5.14014e-05
5.14272e-05
5.14511e-05
5.14736e-05
5.14951e-05
5.15158e-05
5.15356e-05
5.15539e-05
5.15703e-05
5.15845e-05
5.15964e-05
5.16061e-05
5.16142e-05
5.16215e-05
5.16294e-05
5.16389e-05
5.16505e-05
5.1664e-05
5.16787e-05
5.16937e-05
5.17081e-05
3.23579e-05
3.24418e-05
3.25166e-05
3.25833e-05
3.26424e-05
3.26943e-05
3.27403e-05
3.27815e-05
3.28189e-05
3.28529e-05
3.28836e-05
3.2911e-05
3.29354e-05
3.2957e-05
3.29759e-05
3.29932e-05
3.30095e-05
3.30248e-05
3.3039e-05
3.30521e-05
3.30647e-05
3.30773e-05
3.30901e-05
3.31026e-05
3.31138e-05
3.31234e-05
3.31308e-05
3.31361e-05
3.31394e-05
3.31414e-05
3.31431e-05
3.31455e-05
3.31498e-05
3.31566e-05
3.31656e-05
3.31758e-05
3.31863e-05
3.31959e-05
7.25642e-06
7.24501e-06
7.23486e-06
7.22579e-06
7.21761e-06
7.2102e-06
7.20345e-06
7.19733e-06
7.1918e-06
7.1868e-06
7.18226e-06
7.17811e-06
7.1743e-06
7.1708e-06
7.16764e-06
7.16477e-06
7.16217e-06
7.15981e-06
7.15766e-06
7.15571e-06
7.15395e-06
7.15237e-06
7.15098e-06
7.14977e-06
7.14869e-06
7.14772e-06
7.14683e-06
7.14601e-06
7.14524e-06
7.14453e-06
7.14389e-06
7.14335e-06
7.14295e-06
7.14271e-06
7.14266e-06
7.14274e-06
7.14295e-06
7.14329e-06
7.38312e-06
7.36979e-06
7.35788e-06
7.34718e-06
7.33756e-06
7.32888e-06
7.32102e-06
7.31389e-06
7.30741e-06
7.30153e-06
7.29617e-06
7.2913e-06
7.28689e-06
7.2829e-06
7.27929e-06
7.27602e-06
7.27307e-06
7.27038e-06
7.26795e-06
7.26575e-06
7.26376e-06
7.26199e-06
7.26042e-06
7.25904e-06
7.25781e-06
7.2567e-06
7.25571e-06
7.25482e-06
7.25405e-06
7.25337e-06
7.25281e-06
7.25234e-06
7.252e-06
7.25176e-06
7.25163e-06
7.25161e-06
7.25164e-06
7.25171e-06
3.53919e-05
3.54738e-05
3.55452e-05
3.56076e-05
3.56627e-05
3.57113e-05
3.57546e-05
3.57931e-05
3.58276e-05
3.58587e-05
3.5887e-05
3.59128e-05
3.59366e-05
3.59586e-05
3.5979e-05
3.59973e-05
3.60136e-05
3.60287e-05
3.6043e-05
3.60567e-05
3.60699e-05
3.6083e-05
3.60963e-05
3.61091e-05
3.61205e-05
3.61304e-05
3.61388e-05
3.61463e-05
3.6153e-05
3.61593e-05
3.61653e-05
3.61717e-05
3.61785e-05
3.61857e-05
3.61927e-05
3.6199e-05
3.62039e-05
3.62076e-05
5.66028e-05
5.67556e-05
5.68887e-05
5.7005e-05
5.71075e-05
5.71979e-05
5.72782e-05
5.73497e-05
5.74136e-05
5.7471e-05
5.75231e-05
5.75706e-05
5.76142e-05
5.76543e-05
5.76911e-05
5.77247e-05
5.77554e-05
5.77839e-05
5.78105e-05
5.78356e-05
5.78594e-05
5.78822e-05
5.79042e-05
5.7925e-05
5.79442e-05
5.79617e-05
5.79774e-05
5.79917e-05
5.80048e-05
5.80171e-05
5.80289e-05
5.80405e-05
5.80521e-05
5.80639e-05
5.80754e-05
5.80862e-05
5.80958e-05
5.81041e-05
6.99054e-05
7.01205e-05
7.03078e-05
7.04719e-05
7.06168e-05
7.07451e-05
7.0859e-05
7.09606e-05
7.10516e-05
7.11336e-05
7.12079e-05
7.12758e-05
7.13378e-05
7.13946e-05
7.14464e-05
7.14936e-05
7.15368e-05
7.15767e-05
7.16138e-05
7.16484e-05
7.1681e-05
7.1712e-05
7.17412e-05
7.17687e-05
7.17944e-05
7.18182e-05
7.18401e-05
7.18603e-05
7.18789e-05
7.18962e-05
7.19125e-05
7.19282e-05
7.19436e-05
7.1959e-05
7.19741e-05
7.19887e-05
7.20024e-05
7.20148e-05
7.73458e-05
7.76024e-05
7.78271e-05
7.80241e-05
7.81986e-05
7.83533e-05
7.84908e-05
7.86136e-05
7.87239e-05
7.88234e-05
7.89137e-05
7.89961e-05
7.90713e-05
7.91399e-05
7.92022e-05
7.92588e-05
7.93106e-05
7.93581e-05
7.94021e-05
7.9443e-05
7.94814e-05
7.95175e-05
7.95515e-05
7.95834e-05
7.96134e-05
7.96416e-05
7.96679e-05
7.96922e-05
7.97146e-05