/*--------------------------------*- C++ -*----------------------------------*\
| =========                 |                                                 |
| \\      /  F ield         | OpenFOAM: The Open Source CFD Toolbox           |
|  \\    /   O peration     | Version:  2.3.1                                 |
|   \\  /    A nd           | Web:      www.OpenFOAM.org                      |
|    \\/     M anipulation  |                                                 |
\*---------------------------------------------------------------------------*/
FoamFile
{
    version     2.0;
    format      ascii;
    class       surfaceScalarField;
    location    "15";
    object      phi;
}
// * * * * * * * * * * * * * * * * * * * * * * * * * * * * * * * * * * * * * //

dimensions      [0 3 -1 0 0 0 0];

internalField   nonuniform List<scalar> 
110041
(
1.2504e-06
1.39951e-08
3.87772e-08
1.2037e-06
1.2502e-08
3.41938e-08
1.1622e-06
1.12271e-08
3.02723e-08
1.12518e-06
1.01242e-08
2.68967e-08
1.09205e-06
9.15896e-09
2.39771e-08
1.06229e-06
8.30872e-09
2.14451e-08
1.03549e-06
7.55607e-09
1.92432e-08
1.01129e-06
6.88662e-09
1.73201e-08
9.89369e-07
6.28849e-09
1.56305e-08
9.6948e-07
5.75046e-09
1.41382e-08
9.51406e-07
5.26095e-09
1.28137e-08
9.34964e-07
4.81105e-09
1.16305e-08
9.20002e-07
4.39849e-09
1.05637e-08
9.06382e-07
4.02649e-09
9.59372e-09
8.93974e-07
3.698e-09
8.70946e-09
8.8266e-07
3.41026e-09
7.90427e-09
8.72335e-07
3.15465e-09
7.17015e-09
8.62914e-07
2.92235e-09
6.49841e-09
8.54323e-07
2.70803e-09
5.88322e-09
8.46497e-07
2.50662e-09
5.31929e-09
8.39388e-07
2.31184e-09
4.79744e-09
8.32958e-07
2.12138e-09
4.30829e-09
8.2717e-07
1.93834e-09
3.84977e-09
8.21977e-07
1.76573e-09
3.42694e-09
8.17327e-07
1.6052e-09
3.0446e-09
8.13165e-07
1.46049e-09
2.70198e-09
8.09435e-07
1.33651e-09
2.39324e-09
8.0609e-07
1.2342e-09
2.11108e-09
8.03092e-07
1.14786e-09
1.84947e-09
8.00421e-07
1.06809e-09
1.60344e-09
7.98065e-07
9.86783e-10
1.36874e-09
7.96025e-07
8.97621e-10
1.14323e-09
7.94302e-07
7.94465e-10
9.2784e-10
7.92901e-07
6.74322e-10
7.26598e-10
7.91815e-07
5.4101e-10
5.45717e-10
7.91023e-07
4.02472e-10
3.88796e-10
7.90497e-07
2.6911e-10
2.56841e-10
1.47229e-10
1.4509e-10
1.33363e-06
1.68318e-08
5.1761e-08
1.28529e-06
1.49853e-08
4.58591e-08
1.2423e-06
1.34166e-08
4.07937e-08
1.20395e-06
1.20684e-08
3.64113e-08
1.16961e-06
1.08952e-08
3.2601e-08
1.13878e-06
9.86412e-09
2.92801e-08
1.111e-06
8.95088e-09
2.63776e-08
1.08592e-06
8.13729e-09
2.38299e-08
1.06322e-06
7.40749e-09
2.15847e-08
1.04262e-06
6.74521e-09
1.9599e-08
1.02392e-06
6.13637e-09
1.78314e-08
1.00691e-06
5.57487e-09
1.62412e-08
9.9145e-07
5.06416e-09
1.47974e-08
9.77381e-07
4.61164e-09
1.34833e-08
9.64568e-07
4.22155e-09
1.22899e-08
9.52883e-07
3.88983e-09
1.12047e-08
9.42223e-07
3.60468e-09
1.02107e-08
9.32497e-07
3.35354e-09
9.29408e-09
9.23629e-07
3.12785e-09
8.4481e-09
9.15553e-07
2.91984e-09
7.66354e-09
9.08218e-07
2.72131e-09
6.9256e-09
9.01583e-07
2.52835e-09
6.2278e-09
8.95603e-07
2.34132e-09
5.57712e-09
8.90227e-07
2.15967e-09
4.98142e-09
8.85407e-07
1.98294e-09
4.44284e-09
8.8109e-07
1.81572e-09
3.96198e-09
8.77223e-07
1.66626e-09
3.53726e-09
8.73757e-07
1.54013e-09
3.15973e-09
8.70656e-07
1.43651e-09
2.81227e-09
8.67898e-07
1.34959e-09
2.47619e-09
8.65472e-07
1.27087e-09
2.14186e-09
8.63372e-07
1.1879e-09
1.80981e-09
8.61598e-07
1.08505e-09
1.48349e-09
8.60151e-07
9.51609e-10
1.1696e-09
8.59025e-07
7.884e-10
8.79127e-10
8.58201e-07
6.0546e-10
6.20445e-10
8.57653e-07
4.18355e-10
3.98646e-10
2.38758e-10
2.13607e-10
1.34885e-06
1.41232e-08
5.74184e-08
1.30038e-06
1.25284e-08
5.09253e-08
1.25727e-06
1.11703e-08
4.53641e-08
1.21877e-06
9.99982e-09
4.05622e-08
1.1843e-06
8.97909e-09
3.63901e-08
1.15333e-06
8.081e-09
3.2748e-08
1.12545e-06
7.28515e-09
2.95546e-08
1.10026e-06
6.57396e-09
2.67461e-08
1.07747e-06
5.92994e-09
2.42716e-08
1.0568e-06
5.33712e-09
2.20803e-08
1.03803e-06
4.7873e-09
2.01174e-08
1.02098e-06
4.2834e-09
1.83365e-08
1.0055e-06
3.83456e-09
1.6713e-08
9.91424e-07
3.44817e-09
1.52399e-08
9.78606e-07
3.12589e-09
1.39131e-08
9.66916e-07
2.86281e-09
1.2717e-08
9.56247e-07
2.64924e-09
1.16242e-08
9.46514e-07
2.475e-09
1.06122e-08
9.37638e-07
2.331e-09
9.67279e-09
9.29553e-07
2.20705e-09
8.79712e-09
9.22211e-07
2.09361e-09
7.97039e-09
9.15565e-07
1.98602e-09
7.18799e-09
9.09567e-07
1.88143e-09
6.45788e-09
9.04168e-07
1.77368e-09
5.78526e-09
8.99323e-07
1.65703e-09
5.17084e-09
8.94986e-07
1.53368e-09
4.61854e-09
8.91108e-07
1.41411e-09
4.13095e-09
8.87638e-07
1.31086e-09
3.69927e-09
8.84539e-07
1.23266e-09
3.30234e-09
8.81788e-07
1.18118e-09
2.91976e-09
8.79365e-07
1.1487e-09
2.54504e-09
8.77258e-07
1.11709e-09
2.17758e-09
8.75468e-07
1.06324e-09
1.81235e-09
8.73999e-07
9.6994e-10
1.44979e-09
8.72853e-07
8.32595e-10
1.10198e-09
8.72016e-07
6.58358e-10
7.84136e-10
8.71461e-07
4.62042e-10
5.11516e-10
2.59834e-10
2.90101e-10
1.35269e-06
9.70775e-09
5.90082e-08
1.3043e-06
8.57369e-09
5.23425e-08
1.26124e-06
7.58896e-09
4.66484e-08
1.22277e-06
6.72181e-09
4.17419e-08
1.18832e-06
5.95294e-09
3.74832e-08
1.15736e-06
5.27148e-09
3.37638e-08
1.12948e-06
4.66646e-09
3.05004e-08
1.1043e-06
4.1225e-09
2.76311e-08
1.08151e-06
3.62284e-09
2.51009e-08
1.06084e-06
3.15726e-09
2.28481e-08
1.04209e-06
2.72755e-09
2.0812e-08
1.02507e-06
2.34398e-09
1.89538e-08
1.00963e-06
2.01602e-09
1.72616e-08
9.95595e-07
1.7465e-09
1.57353e-08
9.82817e-07
1.53253e-09
1.43711e-08
9.71161e-07
1.36881e-09
1.31496e-08
9.60522e-07
1.25024e-09
1.20383e-08
9.50813e-07
1.17187e-09
1.10122e-08
9.41955e-07
1.12593e-09
1.00626e-08
9.33884e-07
1.10095e-09
9.17742e-09
9.26551e-07
1.08726e-09
8.33946e-09
9.1991e-07
1.08001e-09
7.54727e-09
9.13907e-07
1.07391e-09
6.8102e-09
9.08495e-07
1.05937e-09
6.12644e-09
9.03636e-07
1.02711e-09
5.4883e-09
8.99295e-07
9.76857e-10
4.89881e-09
8.95422e-07
9.19038e-10
4.36745e-09
8.91969e-07
8.70023e-10
3.89389e-09
8.88893e-07
8.45197e-10
3.4636e-09
8.86161e-07
8.49819e-10
3.06335e-09
8.83745e-07
8.75291e-10
2.68982e-09
8.81627e-07
9.00687e-10
2.33439e-09
8.79811e-07
9.00518e-10
1.97816e-09
8.78312e-07
8.56144e-10
1.6124e-09
8.77138e-07
7.59445e-10
1.24728e-09
8.76282e-07
6.13013e-10
9.02105e-10
8.75717e-07
4.28122e-10
5.98639e-10
2.23052e-10
3.47508e-10
1.35362e-06
5.91466e-08
1.30531e-06
4.41985e-09
5.2466e-08
1.26229e-06
3.83977e-09
4.6762e-08
1.22387e-06
3.29803e-09
4.18441e-08
1.18945e-06
2.7965e-09
3.7575e-08
1.15853e-06
2.34101e-09
3.38519e-08
1.13067e-06
1.93123e-09
3.0593e-08
1.10551e-06
1.55763e-09
2.77296e-08
1.08273e-06
1.20985e-09
2.51946e-08
1.06208e-06
8.86794e-10
2.29194e-08
1.04336e-06
5.97776e-10
2.08499e-08
1.02639e-06
3.5455e-10
1.89621e-08
1.01099e-06
1.63048e-10
1.72518e-08
9.96997e-07
2.14304e-11
1.57167e-08
9.84258e-07
-7.6387e-11
1.43476e-08
9.72639e-07
-1.36561e-10
1.31239e-08
9.62035e-07
-1.61769e-10
1.20168e-08
9.52353e-07
-1.53465e-10
1.10066e-08
9.43514e-07
-1.1617e-10
1.00816e-08
9.35453e-07
-5.84278e-11
9.21983e-09
9.28128e-07
1.2327e-11
8.40033e-09
9.21489e-07
9.11859e-11
7.62799e-09
9.15477e-07
1.7035e-10
6.91497e-09
9.10047e-07
2.40349e-10
6.2494e-09
9.0517e-07
2.94012e-10
5.61018e-09
9.00819e-07
3.30972e-10
4.99668e-09
8.96953e-07
3.58348e-10
4.42652e-09
8.93521e-07
3.88715e-10
3.91397e-09
8.90471e-07
4.35055e-10
3.45997e-09
8.87758e-07
5.02228e-10
3.06054e-09
8.85342e-07
5.80614e-10
2.70998e-09
8.83206e-07
6.50733e-10
2.38631e-09
8.81358e-07
6.91426e-10
2.05739e-09
8.79819e-07
6.86794e-10
1.7082e-09
8.78605e-07
6.27999e-10
1.34553e-09
8.77716e-07
5.14579e-10
9.86997e-10
8.77134e-07
3.5471e-10
6.56023e-10
1.65508e-10
3.67046e-10
1.30542e-06
3.57281e-10
5.23523e-08
1.26242e-06
1.85014e-10
4.66506e-08
1.22402e-06
-2.28821e-11
4.17202e-08
1.18963e-06
-2.48162e-10
3.74358e-08
1.15874e-06
-4.72743e-10
3.37078e-08
1.1309e-06
-6.86432e-10
3.0455e-08
1.10575e-06
-8.88045e-10
2.75961e-08
1.08298e-06
-1.07712e-09
2.50518e-08
1.06236e-06
-1.24651e-09
2.2755e-08
1.04368e-06
-1.38475e-09
2.0665e-08
1.02675e-06
-1.48293e-09
1.87686e-08
1.01139e-06
-1.53815e-09
1.70612e-08
9.97431e-07
-1.55372e-09
1.55333e-08
9.84722e-07
-1.53746e-09
1.41697e-08
9.73133e-07
-1.49744e-09
1.29498e-08
9.62557e-07
-1.43773e-09
1.1852e-08
9.529e-07
-1.35857e-09
1.08627e-08
9.44076e-07
-1.25911e-09
9.96631e-09
9.36026e-07
-1.13975e-09
9.1312e-09
9.28707e-07
-1.00384e-09
8.33535e-09
9.22068e-07
-8.58851e-10
7.58967e-09
9.16046e-07
-7.13893e-10
6.90536e-09
9.106e-07
-5.74507e-10
6.26138e-09
9.05707e-07
-4.4133e-10
5.62823e-09
9.01348e-07
-3.13358e-10
5.00356e-09
8.97486e-07
-1.89941e-10
4.41025e-09
8.94069e-07
-6.86292e-11
3.87454e-09
8.91037e-07
5.43449e-11
3.41216e-09
8.88333e-07
1.7903e-10
3.02719e-09
8.85909e-07
2.97401e-10
2.70691e-09
8.83748e-07
3.96337e-10
2.41591e-09
8.81862e-07
4.62385e-10
2.11456e-09
8.80279e-07
4.8496e-10
1.78509e-09
8.7902e-07
4.57546e-10
1.42982e-09
8.78093e-07
3.79602e-10
1.06154e-09
8.77487e-07
2.57046e-10
7.03671e-10
1.02477e-10
3.74917e-10
1.30526e-06
-3.78098e-09
5.2467e-08
1.26224e-06
-3.52689e-09
4.67362e-08
1.22383e-06
-3.37138e-09
4.17595e-08
1.18944e-06
-3.28744e-09
3.74267e-08
1.15856e-06
-3.25044e-09
3.36605e-08
1.13073e-06
-3.24086e-09
3.03801e-08
1.10559e-06
-3.24503e-09
2.74946e-08
1.08285e-06
-3.25121e-09
2.49191e-08
1.06226e-06
-3.24676e-09
2.25925e-08
1.04361e-06
-3.22095e-09
2.04831e-08
1.02671e-06
-3.16798e-09
1.85798e-08
1.01139e-06
-3.08654e-09
1.68759e-08
9.97455e-07
-2.97974e-09
1.53583e-08
9.84766e-07
-2.85513e-09
1.40067e-08
9.73194e-07
-2.72147e-09
1.27963e-08
9.62634e-07
-2.58412e-09
1.1706e-08
9.52993e-07
-2.44255e-09
1.0725e-08
9.44185e-07
-2.29067e-09
9.83926e-09
9.36148e-07
-2.12142e-09
9.01896e-09
9.28835e-07
-1.93426e-09
8.24343e-09
9.22194e-07
-1.73711e-09
7.51961e-09
9.16167e-07
-1.53833e-09
6.85159e-09
9.10714e-07
-1.33842e-09
6.21632e-09
9.05817e-07
-1.13251e-09
5.58884e-09
9.01453e-07
-9.19338e-10
4.96906e-09
8.9759e-07
-7.0513e-10
4.37826e-09
8.94176e-07
-4.98753e-10
3.84485e-09
8.91146e-07
-3.07892e-10
3.3923e-09
8.88435e-07
-1.38138e-10
3.02809e-09
8.85992e-07
5.43553e-12
2.73426e-09
8.83801e-07
1.19062e-10
2.46819e-09
8.81878e-07
1.98181e-10
2.18763e-09
8.80251e-07
2.39217e-10
1.87232e-09
8.78949e-07
2.40017e-10
1.52035e-09
8.77985e-07
2.01634e-10
1.14199e-09
8.77353e-07
1.27638e-10
7.60994e-10
2.43275e-11
3.99117e-10
1.30486e-06
-8.1265e-09
5.27596e-08
1.26177e-06
-7.41446e-09
4.69779e-08
1.22332e-06
-6.8536e-09
4.19375e-08
1.1889e-06
-6.41272e-09
3.75363e-08
1.15801e-06
-6.06537e-09
3.37058e-08
1.13019e-06
-5.78636e-09
3.03695e-08
1.10506e-06
-5.552e-09
2.74347e-08
1.08233e-06
-5.34138e-09
2.48167e-08
1.06177e-06
-5.13769e-09
2.24582e-08
1.04315e-06
-4.93041e-09
2.03282e-08
1.02628e-06
-4.71575e-09
1.84139e-08
1.01098e-06
-4.49441e-09
1.67101e-08
9.97066e-07
-4.26961e-09
1.52047e-08
9.84385e-07
-4.04612e-09
1.38718e-08
9.72815e-07
-3.82825e-09
1.26766e-08
9.62258e-07
-3.61785e-09
1.15903e-08
9.52626e-07
-3.41287e-09
1.06024e-08
9.43833e-07
-3.20608e-09
9.70816e-09
9.3581e-07
-2.98806e-09
8.89001e-09
9.28503e-07
-2.75517e-09
8.12822e-09
9.2186e-07
-2.51205e-09
7.41749e-09
9.15833e-07
-2.26339e-09
6.75209e-09
9.10387e-07
-2.00694e-09
6.11524e-09
9.05496e-07
-1.73749e-09
5.49598e-09
9.01133e-07
-1.45601e-09
4.89877e-09
8.97264e-07
-1.17328e-09
4.3378e-09
8.93836e-07
-9.05269e-10
3.83396e-09
8.90788e-07
-6.68437e-10
3.40854e-09
8.88054e-07
-4.72259e-10
3.06844e-09
8.85583e-07
-3.18739e-10
2.79499e-09
8.83359e-07
-2.03605e-10
2.54662e-09
8.81398e-07
-1.20671e-10
2.27994e-09
8.79732e-07
-6.52724e-11
1.97061e-09
8.78392e-07
-3.44609e-11
1.61448e-09
8.77396e-07
-2.63886e-11
1.22447e-09
8.76739e-07
-4.06102e-11
8.25262e-10
8.76404e-07
-7.658e-11
4.35257e-10
-1.2742e-10
6.4014e-11
1.3036e-06
-1.23063e-08
5.27078e-08
1.26043e-06
-1.11432e-08
4.69064e-08
1.22191e-06
-1.01717e-08
4.18364e-08
1.18746e-06
-9.35706e-09
3.7396e-08
1.15654e-06
-8.67543e-09
3.35222e-08
1.12871e-06
-8.10251e-09
3.01464e-08
1.10359e-06
-7.60941e-09
2.71801e-08
1.08088e-06
-7.16789e-09
2.45396e-08
1.06033e-06
-6.75645e-09
2.21677e-08
1.04173e-06
-6.3635e-09
2.00316e-08
1.02488e-06
-5.9875e-09
1.81181e-08
1.0096e-06
-5.63265e-09
1.64244e-08
9.95692e-07
-5.30257e-09
1.49387e-08
9.83012e-07
-4.99653e-09
1.36302e-08
9.71438e-07
-4.70919e-09
1.24554e-08
9.60877e-07
-4.43378e-09
1.13769e-08
9.51247e-07
-4.16586e-09
1.03824e-08
9.42465e-07
-3.90173e-09
9.47787e-09
9.34453e-07
-3.63539e-09
8.65919e-09
9.27152e-07
-3.36173e-09
7.90817e-09
9.20511e-07
-3.07999e-09
7.20873e-09
9.14489e-07
-2.79003e-09
6.54848e-09
9.09053e-07
-2.48924e-09
5.91794e-09
9.04173e-07
-2.17615e-09
5.31858e-09
8.99814e-07
-1.85551e-09
4.75888e-09
8.95934e-07
-1.54014e-09
4.24683e-09
8.92484e-07
-1.24838e-09
3.79336e-09
8.89403e-07
-9.98068e-10
3.40988e-09
8.86633e-07
-7.99939e-10
3.09831e-09
8.84125e-07
-6.53507e-10
2.84214e-09
8.81864e-07
-5.47801e-10
2.60531e-09
8.79865e-07
-4.67127e-10
2.34562e-09
8.78163e-07
-3.98126e-10
2.03547e-09
8.7679e-07
-3.33963e-10
1.67176e-09
8.75765e-07
-2.74601e-10
1.2731e-09
8.75084e-07
-2.2363e-10
8.64198e-10
8.74735e-07
-1.83258e-10
4.55489e-10
-1.50767e-10
5.19655e-11
1.29947e-06
-1.49527e-08
5.12754e-08
1.25622e-06
-1.34892e-08
4.55944e-08
1.21766e-06
-1.22317e-08
4.06252e-08
1.18318e-06
-1.11457e-08
3.62671e-08
1.15226e-06
-1.02136e-08
3.246e-08
1.12443e-06
-9.41675e-09
2.91409e-08
1.09932e-06
-8.72555e-09
2.62258e-08
1.07663e-06
-8.10779e-09
2.36338e-08
1.0561e-06
-7.53951e-09
2.13099e-08
1.03752e-06
-7.00939e-09
1.92231e-08
1.0207e-06
-6.51828e-09
1.73598e-08
1.00542e-06
-6.0729e-09
1.57142e-08
9.91523e-07
-5.6762e-09
1.42716e-08
9.78848e-07
-5.32227e-09
1.30013e-08
9.67274e-07
-4.99708e-09
1.18614e-08
9.56713e-07
-4.68501e-09
1.08129e-08
9.47085e-07
-4.37843e-09
9.84051e-09
9.38309e-07
-4.0779e-09
8.9523e-09
9.30305e-07
-3.78347e-09
8.15163e-09
9.2301e-07
-3.49178e-09
7.42505e-09
9.16374e-07
-3.19917e-09
6.75515e-09
9.10359e-07
-2.90171e-09
6.12728e-09
9.04932e-07
-2.59594e-09
5.53319e-09
9.00061e-07
-2.28298e-09
4.97756e-09
8.95705e-07
-1.97064e-09
4.47119e-09
8.91817e-07
-1.6724e-09
4.02103e-09
8.88342e-07
-1.40471e-09
3.63099e-09
8.85225e-07
-1.18197e-09
3.30108e-09
8.82412e-07
-1.01114e-09
3.02406e-09
8.79863e-07
-8.89052e-10
2.78454e-09
8.77562e-07
-8.01638e-10
2.55506e-09
8.75523e-07
-7.2784e-10
2.29912e-09
8.73784e-07
-6.48981e-10
1.99026e-09
8.72379e-07
-5.57348e-10
1.62831e-09
8.71325e-07
-4.56462e-10
1.23536e-09
8.70621e-07
-3.53123e-10
8.33788e-10
8.70259e-07
-2.49223e-10
4.28031e-10
-1.44403e-10
1.94747e-11
1.28418e-06
-1.25569e-08
4.6131e-08
1.24104e-06
-1.13118e-08
4.09571e-08
1.2026e-06
-1.02245e-08
3.64375e-08
1.16824e-06
-9.27003e-09
3.24795e-08
1.13744e-06
-8.4392e-09
2.90242e-08
1.10974e-06
-7.72194e-09
2.60115e-08
1.08474e-06
-7.09648e-09
2.33653e-08
1.06216e-06
-6.53694e-09
2.10143e-08
1.04173e-06
-6.02469e-09
1.8911e-08
1.02325e-06
-5.55194e-09
1.70288e-08
1.0065e-06
-5.1203e-09
1.53522e-08
9.9129e-07
-4.73516e-09
1.38684e-08
9.77452e-07
-4.39784e-09
1.25593e-08
9.64832e-07
-4.1019e-09
1.14004e-08
9.53306e-07
-3.83363e-09
1.03626e-08
9.42782e-07
-3.57713e-09
9.41564e-09
9.33185e-07
-3.32417e-09
8.54316e-09
9.24436e-07
-3.07675e-09
7.74716e-09
9.16461e-07
-2.83847e-09
7.03045e-09
9.09193e-07
-2.60907e-09
6.38502e-09
9.02582e-07
-2.38591e-09
5.79821e-09
8.96588e-07
-2.1646e-09
5.25632e-09
8.91184e-07
-1.94084e-09
4.7494e-09
8.86336e-07
-1.7152e-09
4.27981e-09
8.82002e-07
-1.49452e-09
3.85817e-09
8.78127e-07
-1.28931e-09
3.49216e-09
8.74651e-07
-1.11054e-09
3.18179e-09
8.71516e-07
-9.65484e-10
2.91792e-09
8.68675e-07
-8.55652e-10
2.68598e-09
8.66091e-07
-7.76899e-10
2.47179e-09
8.6375e-07
-7.18317e-10
2.25712e-09
8.61669e-07
-6.63058e-10
2.01632e-09
8.59886e-07
-5.95786e-10
1.73006e-09
8.5844e-07
-5.11369e-10
1.40054e-09
8.57351e-07
-4.14932e-10
1.04748e-09
8.56621e-07
-3.12976e-10
6.89173e-10
8.56247e-07
-2.05698e-10
3.30215e-10
-9.24014e-11
-2.82484e-11
1.20246e-06
3.43548e-08
1.16078e-06
3.03689e-08
1.12365e-06
2.69066e-08
1.09049e-06
2.3894e-08
1.06077e-06
2.12778e-08
1.03404e-06
1.90045e-08
1.00993e-06
1.70134e-08
9.88148e-07
1.52501e-08
9.68444e-07
1.36787e-08
9.50614e-07
1.22785e-08
9.34459e-07
1.10351e-08
9.19791e-07
9.93228e-09
9.06442e-07
8.95135e-09
8.94264e-07
8.07599e-09
8.83137e-07
7.29296e-09
8.72971e-07
6.58924e-09
8.63692e-07
5.95456e-09
8.55231e-07
5.38476e-09
8.47516e-07
4.87637e-09
8.40485e-07
4.42186e-09
8.34088e-07
4.01149e-09
8.28288e-07
3.63507e-09
8.23061e-07
3.28592e-09
8.1838e-07
2.96631e-09
8.14201e-07
2.68413e-09
8.10468e-07
2.44416e-09
8.07114e-07
2.24326e-09
8.04078e-07
2.07042e-09
8.01311e-07
1.91147e-09
7.98779e-07
1.75528e-09
7.96468e-07
1.59177e-09
7.94398e-07
1.4076e-09
7.9261e-07
1.19204e-09
7.91152e-07
9.46692e-10
7.90052e-07
6.85016e-10
7.89317e-07
4.21869e-10
7.88943e-07
1.68278e-10
-7.02882e-11
1.38668e-06
8.96227e-09
8.65709e-08
1.33647e-06
7.94883e-09
7.64609e-08
1.29185e-06
7.10099e-09
6.77893e-08
1.25205e-06
6.38011e-09
6.03121e-08
1.21644e-06
5.75906e-09
5.38351e-08
1.18446e-06
5.22052e-09
4.82041e-08
1.15566e-06
4.75139e-09
4.32916e-08
1.12965e-06
4.3402e-09
3.89872e-08
1.10611e-06
3.977e-09
3.5196e-08
1.08475e-06
3.65284e-09
3.18399e-08
1.06535e-06
3.35918e-09
2.88544e-08
1.04771e-06
3.08939e-09
2.61828e-08
1.03166e-06
2.84116e-09
2.37737e-08
1.01705e-06
2.61627e-09
2.15874e-08
1.00374e-06
2.41744e-09
1.95993e-08
9.9161e-07
2.24414e-09
1.77922e-08
9.80542e-07
2.09132e-09
1.61467e-08
9.70445e-07
1.95276e-09
1.46427e-08
9.61238e-07
1.82403e-09
1.32656e-08
9.52854e-07
1.70078e-09
1.20031e-08
9.45236e-07
1.5779e-09
1.08374e-08
9.3834e-07
1.45321e-09
9.75081e-09
9.32124e-07
1.32914e-09
8.73738e-09
9.26538e-07
1.21034e-09
7.80192e-09
9.21531e-07
1.10252e-09
6.94899e-09
9.17047e-07
1.01156e-09
6.17505e-09
9.1303e-07
9.40408e-10
5.46937e-09
9.09435e-07
8.8674e-10
4.81992e-09
9.06223e-07
8.43731e-10
4.21739e-09
9.0337e-07
8.02725e-10
3.65409e-09
9.00859e-07
7.55873e-10
3.12318e-09
8.98686e-07
6.96498e-10
2.62051e-09
8.96848e-07
6.19584e-10
2.14552e-09
8.95348e-07
5.24807e-10
1.70192e-09
8.94178e-07
4.18613e-10
1.2971e-09
8.93321e-07
3.08792e-10
9.36769e-10
8.92751e-07
2.04766e-10
6.22827e-10
1.11518e-10
3.48396e-10
1.45548e-06
1.16249e-08
1.07805e-07
1.40351e-06
1.02794e-08
9.54954e-08
1.35733e-06
9.15565e-09
8.49218e-08
1.31614e-06
8.20474e-09
7.5778e-08
1.27927e-06
7.39018e-09
6.78317e-08
1.24619e-06
6.68657e-09
6.09025e-08
1.2164e-06
6.07471e-09
5.48386e-08
1.18952e-06
5.53841e-09
4.951e-08
1.16521e-06
5.06317e-09
4.48094e-08
1.14318e-06
4.6362e-09
4.0646e-08
1.12319e-06
4.24726e-09
3.6935e-08
1.10503e-06
3.89037e-09
3.3599e-08
1.08853e-06
3.56475e-09
3.05792e-08
1.07351e-06
3.2734e-09
2.784e-08
1.05984e-06
3.0195e-09
2.53569e-08
1.04739e-06
2.80204e-09
2.31023e-08
1.03603e-06
2.61433e-09
2.1043e-08
1.02568e-06
2.44798e-09
1.91514e-08
1.01625e-06
2.29636e-09
1.74095e-08
1.00766e-06
2.15335e-09
1.57978e-08
9.99859e-07
2.01247e-09
1.42916e-08
9.9279e-07
1.87005e-09
1.28793e-08
9.86403e-07
1.72694e-09
1.15665e-08
9.80647e-07
1.58712e-09
1.03606e-08
9.75473e-07
1.45683e-09
9.26215e-09
9.70834e-07
1.34293e-09
8.27042e-09
9.66681e-07
1.24953e-09
7.38079e-09
9.62973e-07
1.176e-09
6.57842e-09
9.59674e-07
1.11736e-09
5.83753e-09
9.56757e-07
1.06563e-09
5.13084e-09
9.542e-07
1.01111e-09
4.44347e-09
9.5199e-07
9.43082e-10
3.77312e-09
9.50119e-07
8.52305e-10
3.12129e-09
9.48583e-07
7.35737e-10
2.49544e-09
9.47372e-07
5.98424e-10
1.91024e-09
9.46473e-07
4.50421e-10
1.37715e-09
9.45868e-07
3.04546e-10
9.04046e-10
1.69019e-10
4.90115e-10
1.46485e-06
1.06016e-08
1.17184e-07
1.41282e-06
9.34778e-09
1.0389e-07
1.36655e-06
8.29702e-09
9.24883e-08
1.32527e-06
7.40623e-09
8.26404e-08
1.28832e-06
6.64274e-09
7.40855e-08
1.25516e-06
5.98304e-09
6.66174e-08
1.22531e-06
5.40851e-09
6.00698e-08
1.19838e-06
4.90291e-09
5.43106e-08
1.17403e-06
4.4518e-09
4.92299e-08
1.15198e-06
4.04363e-09
4.47236e-08
1.13199e-06
3.67104e-09
4.06887e-08
1.11384e-06
3.33146e-09
3.70417e-08
1.09736e-06
3.02613e-09
3.3733e-08
1.08238e-06
2.75817e-09
3.07384e-08
1.06874e-06
2.52994e-09
2.80389e-08
1.05632e-06
2.34003e-09
2.5601e-08
1.045e-06
2.18232e-09
2.33777e-08
1.03468e-06
2.04882e-09
2.13298e-08
1.02528e-06
1.93256e-09
1.94369e-08
1.01672e-06
1.82712e-09
1.76786e-08
1.00895e-06
1.72611e-09
1.60299e-08
1.0019e-06
1.62506e-09
1.44814e-08
9.95524e-07
1.52242e-09
1.30399e-08
9.89768e-07
1.41902e-09
1.17095e-08
9.84588e-07
1.31831e-09
1.04894e-08
9.79941e-07
1.22567e-09
9.38275e-09
9.75785e-07
1.14616e-09
8.39014e-09
9.72081e-07
1.08254e-09
7.49729e-09
9.68792e-07
1.03422e-09
6.67428e-09
9.65889e-07
9.96371e-10
5.89236e-09
9.63346e-07
9.59875e-10
5.139e-09
9.61146e-07
9.1257e-10
4.40768e-09
9.5928e-07
8.42661e-10
3.68831e-09
9.57741e-07
7.4397e-10
2.98085e-09
9.56522e-07
6.18349e-10
2.3008e-09
9.55614e-07
4.74175e-10
1.66867e-09
9.55e-07
3.23849e-10
1.10577e-09
1.78302e-10
6.167e-10
1.46592e-06
7.74795e-09
1.20438e-07
1.414e-06
6.80559e-09
1.068e-07
1.36782e-06
6.00531e-09
9.51218e-08
1.3266e-06
5.31861e-09
8.50477e-08
1.28971e-06
4.72415e-09
7.63012e-08
1.25658e-06
4.20649e-09
6.86647e-08
1.22677e-06
3.75236e-09
6.19682e-08
1.19988e-06
3.34934e-09
5.60782e-08
1.17556e-06
2.98686e-09
5.08764e-08
1.15356e-06
2.65784e-09
4.62434e-08
1.13361e-06
2.35934e-09
4.20705e-08
1.11552e-06
2.09182e-09
3.82854e-08
1.09909e-06
1.8574e-09
3.48538e-08
1.08417e-06
1.65819e-09
3.17603e-08
1.07059e-06
1.49495e-09
2.89859e-08
1.05822e-06
1.366e-09
2.64924e-08
1.04695e-06
1.26683e-09
2.42253e-08
1.03668e-06
1.19144e-09
2.2142e-08
1.02732e-06
1.13401e-09
2.02202e-08
1.0188e-06
1.08881e-09
1.84345e-08
1.01106e-06
1.05017e-09
1.67571e-08
1.00403e-06
1.01343e-09
1.51824e-08
9.97673e-07
9.75316e-10
1.37176e-08
9.91927e-07
9.33953e-10
1.23571e-08
9.86754e-07
8.89737e-10
1.10893e-08
9.82116e-07
8.45865e-10
9.91689e-09
9.77973e-07
8.07219e-10
8.84998e-09
9.74284e-07
7.78464e-10
7.88681e-09
9.71012e-07
7.61666e-10
7.008e-09
9.68123e-07
7.54326e-10
6.19419e-09
9.65589e-07
7.48752e-10
5.43484e-09
9.63392e-07
7.33498e-10
4.71112e-09
9.61521e-07
6.96817e-10
3.99455e-09
9.59973e-07
6.31257e-10
3.27278e-09
9.58745e-07
5.36022e-10
2.55789e-09
9.57829e-07
4.1672e-10
1.87545e-09
9.57213e-07
2.83412e-10
1.25554e-09
1.47717e-10
7.09346e-10
1.46562e-06
1.21202e-07
1.41381e-06
3.59744e-09
1.07488e-07
1.3677e-06
3.12624e-09
9.57451e-08
1.32655e-06
2.70755e-09
8.5611e-08
1.2897e-06
2.33391e-09
7.68123e-08
1.25662e-06
1.99991e-09
6.91384e-08
1.22685e-06
1.70041e-09
6.24187e-08
1.19999e-06
1.43016e-09
5.65085e-08
1.17571e-06
1.18525e-09
5.12731e-08
1.15374e-06
9.64159e-10
4.65854e-08
1.13383e-06
7.6778e-10
4.23468e-08
1.11578e-06
5.98299e-10
3.8503e-08
1.09941e-06
4.57647e-10
3.50295e-08
1.08453e-06
3.46374e-10
3.19084e-08
1.07099e-06
2.63538e-10
2.91153e-08
1.05866e-06
2.07175e-10
2.66103e-08
1.04743e-06
1.74423e-10
2.4343e-08
1.03719e-06
1.61947e-10
2.22755e-08
1.02786e-06
1.66396e-10
2.03804e-08
1.01936e-06
1.83983e-10
1.862e-08
1.01164e-06
2.0997e-10
1.6963e-08
1.00463e-06
2.39687e-10
1.54115e-08
9.98278e-07
2.69468e-10
1.39736e-08
9.92536e-07
2.96668e-10
1.26291e-08
9.87366e-07
3.20133e-10
1.13497e-08
9.82733e-07
3.40717e-10
1.01347e-08
9.78599e-07
3.60968e-10
9.00664e-09
9.74923e-07
3.8404e-10
7.98425e-09
9.71664e-07
4.11676e-10
7.06892e-09
9.68784e-07
4.42202e-10
6.25315e-09
9.66251e-07
4.69996e-10
5.52177e-09
9.64046e-07
4.8635e-10
4.83793e-09
9.62163e-07
4.82002e-10
4.15577e-09
9.60599e-07
4.50775e-10
3.45275e-09
9.59354e-07
3.91143e-10
2.73469e-09
9.58427e-07
3.06278e-10
2.02504e-09
9.57806e-07
2.03077e-10
1.3573e-09
9.14526e-11
7.50941e-10
1.41352e-06
1.80367e-10
1.07536e-07
1.36745e-06
7.01323e-11
9.57742e-08
1.32633e-06
-5.15277e-11
8.56029e-08
1.28951e-06
-1.79185e-10
7.67661e-08
1.25646e-06
-3.08675e-10
6.90696e-08
1.22671e-06
-4.36108e-10
6.23421e-08
1.19987e-06
-5.57556e-10
5.64217e-08
1.17561e-06
-6.69178e-10
5.11593e-08
1.15367e-06
-7.67148e-10
4.64312e-08
1.13379e-06
-8.47703e-10
4.21555e-08
1.11578e-06
-9.07913e-10
3.82906e-08
1.09943e-06
-9.46708e-10
3.48121e-08
1.08458e-06
-9.65136e-10
3.16947e-08
1.07107e-06
-9.65384e-10
2.89066e-08
1.05877e-06
-9.49347e-10
2.64072e-08
1.04756e-06
-9.18046e-10
2.41537e-08
1.03735e-06
-8.71901e-10
2.21146e-08
1.02803e-06
-8.11298e-10
2.02574e-08
1.01955e-06
-7.3778e-10
1.8534e-08
1.01184e-06
-6.54669e-10
1.69122e-08
1.00483e-06
-5.65749e-10
1.53993e-08
9.98484e-07
-4.73773e-10
1.40001e-08
9.9274e-07
-3.80557e-10
1.2682e-08
9.87569e-07
-2.87714e-10
1.14072e-08
9.82937e-07
-1.96894e-10
1.01732e-08
9.78807e-07
-1.09771e-10
9.01089e-09
9.75137e-07
-2.77031e-11
7.95601e-09
9.71883e-07
4.78746e-11
7.02997e-09
9.69003e-07
1.15259e-10
6.2346e-09
9.66463e-07
1.71284e-10
5.54549e-09
9.64245e-07
2.11604e-10
4.90863e-09
9.62343e-07
2.31907e-10
4.26692e-09
9.60757e-07
2.2981e-10
3.59132e-09
9.59493e-07
2.04972e-10
2.88044e-09
9.5855e-07
1.58815e-10
2.15218e-09
9.57921e-07
9.47152e-11
1.44109e-09
1.88481e-11
7.75172e-10
1.41342e-06
-3.27868e-09
1.07709e-07
1.36734e-06
-3.01464e-09
9.59004e-08
1.32621e-06
-2.82111e-09
8.56585e-08
1.28939e-06
-2.68312e-09
7.67479e-08
1.25634e-06
-2.58932e-09
6.89907e-08
1.2266e-06
-2.52782e-09
6.22164e-08
1.19977e-06
-2.4855e-09
5.62512e-08
1.17553e-06
-2.45055e-09
5.09401e-08
1.1536e-06
-2.41399e-09
4.61672e-08
1.13374e-06
-2.36987e-09
4.18609e-08
1.11575e-06
-2.31558e-09
3.79831e-08
1.09942e-06
-2.25153e-09
3.4508e-08
1.08459e-06
-2.17975e-09
3.1406e-08
1.07109e-06
-2.10218e-09
2.8637e-08
1.05881e-06
-2.01907e-09
2.61536e-08
1.04761e-06
-1.92884e-09
2.3913e-08
1.0374e-06
-1.82932e-09
2.1888e-08
1.0281e-06
-1.71879e-09
2.00491e-08
1.01963e-06
-1.59689e-09
1.83508e-08
1.01192e-06
-1.465e-09
1.67614e-08
1.00492e-06
-1.32498e-09
1.52816e-08
9.98567e-07
-1.1777e-09
1.39072e-08
9.92823e-07
-1.02387e-09
1.26041e-08
9.8765e-07
-8.65691e-10
1.134e-08
9.83015e-07
-7.07664e-10
1.0115e-08
9.78881e-07
-5.56481e-10
8.95824e-09
9.75208e-07
-4.19252e-10
7.90988e-09
9.71948e-07
-3.0122e-10
7.00129e-09
9.69058e-07
-2.04946e-10
6.23849e-09
9.66504e-07
-1.30668e-10
5.59035e-09
9.64267e-07
-7.71365e-11
4.99352e-09
9.62343e-07
-4.17498e-11
4.38539e-09
9.60735e-07
-2.12066e-11
3.73164e-09
9.59449e-07
-1.34704e-11
3.02498e-09
9.58487e-07
-1.84964e-11
2.28058e-09
9.57846e-07
-3.6494e-11
1.5333e-09
-6.56167e-11
8.15616e-10
1.41351e-06
-6.59564e-09
1.07936e-07
1.36737e-06
-5.96498e-09
9.60672e-08
1.3262e-06
-5.45369e-09
8.57438e-08
1.28935e-06
-5.04098e-09
7.67426e-08
1.25628e-06
-4.71237e-09
6.8899e-08
1.22652e-06
-4.45086e-09
6.2049e-08
1.19969e-06
-4.23538e-09
5.6018e-08
1.17545e-06
-4.04629e-09
5.06511e-08
1.15353e-06
-3.86947e-09
4.58364e-08
1.13368e-06
-3.69758e-09
4.15038e-08
1.11569e-06
-3.52969e-09
3.76152e-08
1.09937e-06
-3.36825e-09
3.41473e-08
1.08454e-06
-3.21521e-09
3.10696e-08
1.07105e-06
-3.07008e-09
2.83322e-08
1.05876e-06
-2.92907e-09
2.58735e-08
1.04757e-06
-2.78671e-09
2.36424e-08
1.03737e-06
-2.63896e-09
2.16135e-08
1.02807e-06
-2.48385e-09
1.9771e-08
1.0196e-06
-2.32017e-09
1.80836e-08
1.01189e-06
-2.14718e-09
1.65186e-08
1.00488e-06
-1.96414e-09
1.50612e-08
9.98532e-07
-1.76982e-09
1.36969e-08
9.92787e-07
-1.56433e-09
1.24009e-08
9.87611e-07
-1.35118e-09
1.11574e-08
9.82969e-07
-1.13812e-09
9.97107e-09
9.78825e-07
-9.36548e-10
8.86193e-09
9.75137e-07
-7.5844e-10
7.86102e-09
9.7186e-07
-6.12113e-10
6.99686e-09
9.68949e-07
-5.00392e-10
6.27452e-09
9.66372e-07
-4.2065e-10
5.662e-09
9.64111e-07
-3.65369e-10
5.0962e-09
9.62161e-07
-3.24015e-10
4.51198e-09
9.60528e-07
-2.86726e-10
3.86948e-09
9.59218e-07
-2.48968e-10
3.1592e-09
9.58237e-07
-2.12219e-10
2.39937e-09
9.57581e-07
-1.79932e-10
1.62511e-09
9.57241e-07
-1.54248e-10
8.63785e-10
-1.34959e-10
1.32686e-10
1.41351e-06
-9.27059e-09
1.07368e-07
1.36728e-06
-8.33667e-09
9.5516e-08
1.32603e-06
-7.55422e-09
8.51866e-08
1.28912e-06
-6.90028e-09
7.61604e-08
1.25601e-06
-6.36153e-09
6.82825e-08
1.22622e-06
-5.91967e-09
6.14003e-08
1.19937e-06
-5.54798e-09
5.5345e-08
1.17512e-06
-5.22005e-09
4.99639e-08
1.15319e-06
-4.91752e-09
4.51459e-08
1.13334e-06
-4.633e-09
4.082e-08
1.11535e-06
-4.36833e-09
3.69487e-08
1.09902e-06
-4.12795e-09
3.35109e-08
1.08418e-06
-3.91282e-09
3.04744e-08
1.07068e-06
-3.71863e-09
2.77814e-08
1.05838e-06
-3.53612e-09
2.53598e-08
1.04718e-06
-3.35501e-09
2.31483e-08
1.03697e-06
-3.16985e-09
2.11215e-08
1.02767e-06
-2.9799e-09
1.92771e-08
1.01919e-06
-2.78471e-09
1.76001e-08
1.01148e-06
-2.5826e-09
1.60591e-08
1.00446e-06
-2.37075e-09
1.46269e-08
9.98106e-07
-2.14578e-09
1.32823e-08
9.92357e-07
-1.90703e-09
1.20099e-08
9.87175e-07
-1.65958e-09
1.08086e-08
9.82523e-07
-1.41447e-09
9.6874e-09
9.78362e-07
-1.18688e-09
8.65787e-09
9.74652e-07
-9.91624e-10
7.73727e-09
9.71346e-07
-8.37993e-10
6.94107e-09
9.68405e-07
-7.27902e-10
6.26762e-09
9.65794e-07
-6.55918e-10
5.68766e-09
9.63499e-07
-6.09201e-10
5.14488e-09
9.61515e-07
-5.699e-10
4.57547e-09
9.59849e-07
-5.22168e-10
3.9366e-09
9.5851e-07
-4.59761e-10
3.22104e-09
9.57504e-07
-3.86083e-10
2.45341e-09
9.56828e-07
-3.07345e-10
1.66751e-09
9.56477e-07
-2.28326e-10
8.80806e-10
-1.53461e-10
1.08227e-10
1.41213e-06
-1.03109e-08
1.04444e-07
1.36578e-06
-9.24718e-09
9.28513e-08
1.32445e-06
-8.33887e-09
8.27403e-08
1.28749e-06
-7.56485e-09
7.38951e-08
1.25434e-06
-6.91647e-09
6.61672e-08
1.22452e-06
-6.37808e-09
5.94132e-08
1.19765e-06
-5.92154e-09
5.34722e-08
1.17338e-06
-5.51758e-09
4.81972e-08
1.15144e-06
-5.14668e-09
4.34815e-08
1.13158e-06
-4.80278e-09
3.92569e-08
1.11357e-06
-4.49009e-09
3.54849e-08
1.09723e-06
-4.21419e-09
3.21402e-08
1.08238e-06
-3.97512e-09
2.91865e-08
1.06886e-06
-3.76588e-09
2.65673e-08
1.05655e-06
-3.57293e-09
2.4213e-08
1.04533e-06
-3.38175e-09
2.20608e-08
1.0351e-06
-3.18553e-09
2.0082e-08
1.02578e-06
-2.98524e-09
1.82776e-08
1.01729e-06
-2.78279e-09
1.66428e-08
1.00956e-06
-2.57785e-09
1.51527e-08
1.00253e-06
-2.36722e-09
1.37793e-08
9.96157e-07
-2.14552e-09
1.24986e-08
9.90397e-07
-1.91029e-09
1.12965e-08
9.85206e-07
-1.66686e-09
1.0176e-08
9.80542e-07
-1.4283e-09
9.14871e-09
9.76364e-07
-1.2117e-09
8.22377e-09
9.72628e-07
-1.03191e-09
7.40714e-09
9.6929e-07
-8.96344e-10
6.69773e-09
9.66309e-07
-8.04929e-10
6.08249e-09
9.63653e-07
-7.50864e-10
5.53476e-09
9.61308e-07
-7.19095e-10
5.00996e-09
9.59273e-07
-6.88069e-10
4.45259e-09
9.57557e-07
-6.38971e-10