/*--------------------------------*- C++ -*----------------------------------*\
| =========                 |                                                 |
| \\      /  F ield         | OpenFOAM: The Open Source CFD Toolbox           |
|  \\    /   O peration     | Version:  2.3.1                                 |
|   \\  /    A nd           | Web:      www.OpenFOAM.org                      |
|    \\/     M anipulation  |                                                 |
\*---------------------------------------------------------------------------*/
FoamFile
{
    version     2.0;
    format      ascii;
    class       surfaceScalarField;
    location    "15";
    object      phi_0;
}
// * * * * * * * * * * * * * * * * * * * * * * * * * * * * * * * * * * * * * //

dimensions      [0 3 -1 0 0 0 0];

internalField   nonuniform List<scalar> 
110041
(
1.25029e-06
1.39915e-08
3.87658e-08
1.20361e-06
1.24989e-08
3.4184e-08
1.16212e-06
1.12243e-08
3.02637e-08
1.12511e-06
1.01217e-08
2.68892e-08
1.09198e-06
9.15675e-09
2.39705e-08
1.06224e-06
8.30675e-09
2.14392e-08
1.03545e-06
7.55431e-09
1.9238e-08
1.01125e-06
6.88504e-09
1.73155e-08
9.89332e-07
6.28707e-09
1.56264e-08
9.69448e-07
5.74919e-09
1.41345e-08
9.51378e-07
5.2598e-09
1.28104e-08
9.34941e-07
4.81001e-09
1.16276e-08
9.19982e-07
4.39755e-09
1.05611e-08
9.06365e-07
4.02564e-09
9.5913e-09
8.93961e-07
3.69722e-09
8.70726e-09
8.82649e-07
3.40954e-09
7.90227e-09
8.72327e-07
3.15401e-09
7.16832e-09
8.62908e-07
2.92177e-09
6.49675e-09
8.54319e-07
2.7075e-09
5.8817e-09
8.46495e-07
2.50615e-09
5.31789e-09
8.39387e-07
2.31141e-09
4.79616e-09
8.32959e-07
2.12099e-09
4.30711e-09
8.27172e-07
1.93799e-09
3.84868e-09
8.21981e-07
1.7654e-09
3.42593e-09
8.17333e-07
1.60489e-09
3.04367e-09
8.13171e-07
1.4602e-09
2.70111e-09
8.09443e-07
1.33625e-09
2.39243e-09
8.06098e-07
1.23395e-09
2.11034e-09
8.03102e-07
1.14763e-09
1.84878e-09
8.00431e-07
1.06788e-09
1.60279e-09
7.98076e-07
9.86593e-10
1.36814e-09
7.96036e-07
8.97453e-10
1.14268e-09
7.94315e-07
7.94321e-10
9.27323e-10
7.92914e-07
6.74203e-10
7.2611e-10
7.91828e-07
5.40919e-10
5.45248e-10
7.91037e-07
4.02408e-10
3.88338e-10
7.90512e-07
2.69076e-10
2.56386e-10
1.47219e-10
1.4463e-10
1.33351e-06
1.68272e-08
5.17464e-08
1.28518e-06
1.49812e-08
4.58463e-08
1.24221e-06
1.34131e-08
4.07825e-08
1.20387e-06
1.20653e-08
3.64015e-08
1.16954e-06
1.08925e-08
3.25923e-08
1.13871e-06
9.86166e-09
2.92724e-08
1.11094e-06
8.94869e-09
2.63708e-08
1.08587e-06
8.13533e-09
2.38239e-08
1.06317e-06
7.40573e-09
2.15793e-08
1.04258e-06
6.74364e-09
1.95942e-08
1.02388e-06
6.13494e-09
1.78271e-08
1.00688e-06
5.57359e-09
1.62373e-08
9.91422e-07
5.06299e-09
1.47939e-08
9.77357e-07
4.61058e-09
1.34801e-08
9.64546e-07
4.22058e-09
1.2287e-08
9.52865e-07
3.88894e-09
1.12021e-08
9.42207e-07
3.60387e-09
1.02083e-08
9.32484e-07
3.35282e-09
9.29187e-09
9.23618e-07
3.1272e-09
8.44609e-09
9.15543e-07
2.91927e-09
7.6617e-09
9.0821e-07
2.72079e-09
6.92392e-09
9.01577e-07
2.52789e-09
6.22625e-09
8.95598e-07
2.34091e-09
5.57568e-09
8.90224e-07
2.1593e-09
4.98009e-09
8.85405e-07
1.98259e-09
4.4416e-09
8.81089e-07
1.81539e-09
3.96084e-09
8.77223e-07
1.66593e-09
3.53621e-09
8.73758e-07
1.53981e-09
3.15877e-09
8.70658e-07
1.43621e-09
2.81139e-09
8.67902e-07
1.34931e-09
2.47537e-09
8.65476e-07
1.27062e-09
2.14111e-09
8.63377e-07
1.18768e-09
1.80912e-09
8.61604e-07
1.08486e-09
1.48286e-09
8.60157e-07
9.51453e-10
1.16902e-09
8.59031e-07
7.88279e-10
8.78581e-10
8.58209e-07
6.05379e-10
6.19929e-10
8.57661e-07
4.18316e-10
3.98151e-10
2.38759e-10
2.13123e-10
1.34873e-06
1.4119e-08
5.74023e-08
1.30028e-06
1.25248e-08
5.09113e-08
1.25717e-06
1.11671e-08
4.53519e-08
1.21869e-06
9.99703e-09
4.05514e-08
1.18422e-06
8.97662e-09
3.63806e-08
1.15327e-06
8.07881e-09
3.27396e-08
1.12539e-06
7.2832e-09
2.95471e-08
1.10021e-06
6.57223e-09
2.67394e-08
1.07742e-06
5.92839e-09
2.42656e-08
1.05675e-06
5.33572e-09
2.2075e-08
1.03799e-06
4.78604e-09
2.01126e-08
1.02095e-06
4.28227e-09
1.83322e-08
1.00547e-06
3.83353e-09
1.67091e-08
9.91397e-07
3.44724e-09
1.52363e-08
9.78582e-07
3.12504e-09
1.39098e-08
9.66895e-07
2.86204e-09
1.2714e-08
9.56229e-07
2.64854e-09
1.16215e-08
9.46498e-07
2.47438e-09
1.06098e-08
9.37624e-07
2.33045e-09
9.67054e-09
9.29542e-07
2.20657e-09
8.79507e-09
9.22201e-07
2.09319e-09
7.96852e-09
9.15557e-07
1.98567e-09
7.18626e-09
9.0956e-07
1.88113e-09
6.45628e-09
9.04162e-07
1.77341e-09
5.78378e-09
8.99319e-07
1.65677e-09
5.16946e-09
8.94983e-07
1.53342e-09
4.61726e-09
8.91106e-07
1.41384e-09
4.12977e-09
8.87637e-07
1.3106e-09
3.69818e-09
8.84539e-07
1.2324e-09
3.30133e-09
8.81789e-07
1.18093e-09
2.91884e-09
8.79367e-07
1.14847e-09
2.5442e-09
8.77261e-07
1.11689e-09
2.17681e-09
8.75471e-07
1.06306e-09
1.81165e-09
8.74003e-07
9.69793e-10
1.44915e-09
8.72858e-07
8.3248e-10
1.1014e-09
8.72021e-07
6.5828e-10
7.83594e-10
8.71467e-07
4.62006e-10
5.11011e-10
2.59843e-10
2.89621e-10
1.35257e-06
9.70471e-09
5.89914e-08
1.3042e-06
8.57105e-09
5.23279e-08
1.26114e-06
7.58664e-09
4.66356e-08
1.22269e-06
6.71977e-09
4.17307e-08
1.18824e-06
5.95114e-09
3.74733e-08
1.15729e-06
5.26989e-09
3.3755e-08
1.12942e-06
4.66505e-09
3.04926e-08
1.10425e-06
4.12125e-09
2.76241e-08
1.08146e-06
3.62173e-09
2.50947e-08
1.06079e-06
3.15627e-09
2.28426e-08
1.04205e-06
2.72665e-09
2.0807e-08
1.02504e-06
2.34317e-09
1.89493e-08
1.0096e-06
2.0153e-09
1.72575e-08
9.95567e-07
1.74586e-09
1.57316e-08
9.82792e-07
1.53197e-09
1.43677e-08
9.7114e-07
1.36831e-09
1.31465e-08
9.60503e-07
1.2498e-09
1.20354e-08
9.50796e-07
1.17148e-09
1.10097e-08
9.41941e-07
1.12559e-09
1.00603e-08
9.33871e-07
1.10068e-09
9.17527e-09
9.2654e-07
1.08704e-09
8.3375e-09
9.199e-07
1.07984e-09
7.54547e-09
9.13899e-07
1.07378e-09
6.80854e-09
9.08488e-07
1.05926e-09
6.12491e-09
9.03631e-07
1.02701e-09
5.48687e-09
8.99291e-07
9.76744e-10
4.89748e-09
8.95419e-07
9.18906e-10
4.3662e-09
8.91967e-07
8.69874e-10
3.89272e-09
8.88892e-07
8.4504e-10
3.46252e-09
8.86161e-07
8.49664e-10
3.06236e-09
8.83745e-07
8.75145e-10
2.68892e-09
8.81628e-07
9.00554e-10
2.33358e-09
8.79813e-07
9.00399e-10
1.97743e-09
8.78315e-07
8.56038e-10
1.61173e-09
8.77142e-07
7.59357e-10
1.24667e-09
8.76286e-07
6.12948e-10
9.01546e-10
8.75721e-07
4.28092e-10
5.98127e-10
2.23064e-10
3.47037e-10
1.3535e-06
5.91296e-08
1.3052e-06
4.41846e-09
5.24511e-08
1.2622e-06
3.83856e-09
4.6749e-08
1.22379e-06
3.29696e-09
4.18327e-08
1.18938e-06
2.79556e-09
3.75649e-08
1.15846e-06
2.34018e-09
3.3843e-08
1.13061e-06
1.9305e-09
3.05851e-08
1.10546e-06
1.55699e-09
2.77225e-08
1.08268e-06
1.20928e-09
2.51883e-08
1.06204e-06
8.86298e-10
2.29137e-08
1.04332e-06
5.97339e-10
2.08448e-08
1.02635e-06
3.54172e-10
1.89575e-08
1.01096e-06
1.6273e-10
1.72476e-08
9.96968e-07
2.11725e-11
1.57129e-08
9.84233e-07
-7.65922e-11
1.43441e-08
9.72617e-07
-1.36724e-10
1.31207e-08
9.62015e-07
-1.61898e-10
1.20139e-08
9.52336e-07
-1.53563e-10
1.1004e-08
9.43499e-07
-1.16235e-10
1.00792e-08
9.3544e-07
-5.84545e-11
9.21763e-09
9.28117e-07
1.23379e-11
8.39832e-09
9.21479e-07
9.12309e-11
7.62617e-09
9.15469e-07
1.70417e-10
6.91331e-09
9.1004e-07
2.40423e-10
6.24787e-09
9.05164e-07
2.94078e-10
5.60876e-09
9.00815e-07
3.31019e-10
4.99533e-09
8.9695e-07
3.58372e-10
4.42524e-09
8.93518e-07
3.88719e-10
3.91277e-09
8.90469e-07
4.35044e-10
3.45884e-09
8.87757e-07
5.02208e-10
3.0595e-09
8.85343e-07
5.8059e-10
2.70903e-09
8.83207e-07
6.50704e-10
2.38546e-09
8.8136e-07
6.91391e-10
2.05663e-09
8.79821e-07
6.86752e-10
1.70751e-09
8.78608e-07
6.27956e-10
1.3449e-09
8.7772e-07
5.14544e-10
9.86415e-10
8.77138e-07
3.54696e-10
6.55496e-10
1.65524e-10
3.66573e-10
1.30531e-06
3.5725e-10
5.23374e-08
1.26232e-06
1.84984e-10
4.66375e-08
1.22394e-06
-2.29128e-11
4.17087e-08
1.18955e-06
-2.48188e-10
3.74257e-08
1.15867e-06
-4.72758e-10
3.36988e-08
1.13084e-06
-6.86434e-10
3.0447e-08
1.10569e-06
-8.88033e-10
2.7589e-08
1.08293e-06
-1.07709e-09
2.50455e-08
1.06232e-06
-1.24647e-09
2.27493e-08
1.04364e-06
-1.3847e-09
2.06599e-08
1.02671e-06
-1.48286e-09
1.87639e-08
1.01136e-06
-1.53804e-09
1.7057e-08
9.97403e-07
-1.55358e-09
1.55295e-08
9.84697e-07
-1.53729e-09
1.41662e-08
9.73111e-07
-1.49725e-09
1.29466e-08
9.62537e-07
-1.43753e-09
1.18491e-08
9.52882e-07
-1.35836e-09
1.086e-08
9.44061e-07
-1.25889e-09
9.96387e-09
9.36013e-07
-1.13952e-09
9.12899e-09
9.28696e-07
-1.0036e-09
8.33336e-09
9.22058e-07
-8.58601e-10
7.58787e-09
9.16038e-07
-7.13645e-10
6.90373e-09
9.10593e-07
-5.74271e-10
6.25988e-09
9.05701e-07
-4.41112e-10
5.62683e-09
9.01343e-07
-3.13161e-10
5.00222e-09
8.97482e-07
-1.89762e-10
4.40897e-09
8.94066e-07
-6.84666e-11
3.87332e-09
8.91036e-07
5.44923e-11
3.41101e-09
8.88333e-07
1.79162e-10
3.02613e-09
8.8591e-07
2.97515e-10
2.70595e-09
8.83749e-07
3.96427e-10
2.41504e-09
8.81864e-07
4.62448e-10
2.11378e-09
8.80281e-07
4.84998e-10
1.78438e-09
8.79023e-07
4.57565e-10
1.42917e-09
8.78097e-07
3.79613e-10
1.06093e-09
8.77491e-07
2.57058e-10
7.03126e-10
1.02502e-10
3.74436e-10
1.30515e-06
-3.77966e-09
5.24521e-08
1.26214e-06
-3.52574e-09
4.67231e-08
1.22374e-06
-3.37036e-09
4.1748e-08
1.18936e-06
-3.28654e-09
3.74166e-08
1.15849e-06
-3.24963e-09
3.36515e-08
1.13067e-06
-3.24013e-09
3.03722e-08
1.10554e-06
-3.24437e-09
2.74875e-08
1.0828e-06
-3.2506e-09
2.49127e-08
1.06221e-06
-3.24619e-09
2.25868e-08
1.04357e-06
-3.22042e-09
2.0478e-08
1.02668e-06
-3.16746e-09
1.85752e-08
1.01136e-06
-3.08603e-09
1.68717e-08
9.97427e-07
-2.97922e-09
1.53545e-08
9.84741e-07
-2.85461e-09
1.40033e-08
9.73171e-07
-2.72096e-09
1.27932e-08
9.62614e-07
-2.58361e-09
1.17031e-08
9.52976e-07
-2.44205e-09
1.07224e-08
9.4417e-07
-2.29019e-09
9.83685e-09
9.36135e-07
-2.12096e-09
9.01677e-09
9.28824e-07
-1.93381e-09
8.24146e-09
9.22184e-07
-1.73669e-09
7.51785e-09
9.16158e-07
-1.53793e-09
6.84999e-09
9.10707e-07
-1.33805e-09
6.21485e-09
9.05811e-07
-1.13216e-09
5.58746e-09
9.01449e-07
-9.1901e-10
4.96774e-09
8.97587e-07
-7.04813e-10
4.37699e-09
8.94173e-07
-4.98446e-10
3.84364e-09
8.91144e-07
-3.07599e-10
3.39117e-09
8.88434e-07
-1.37866e-10
3.02705e-09
8.85993e-07
5.67797e-12
2.73331e-09
8.83802e-07
1.19265e-10
2.46734e-09
8.8188e-07
1.98342e-10
2.18685e-09
8.80254e-07
2.39339e-10
1.8716e-09
8.78952e-07
2.40106e-10
1.51967e-09
8.77988e-07
2.01698e-10
1.14136e-09
8.77357e-07
1.27684e-10
7.60434e-10
2.43644e-11
3.98627e-10
1.30475e-06
-8.12394e-09
5.27448e-08
1.26167e-06
-7.4122e-09
4.69649e-08
1.22323e-06
-6.85161e-09
4.1926e-08
1.18883e-06
-6.41095e-09
3.75262e-08
1.15794e-06
-6.06379e-09
3.36969e-08
1.13013e-06
-5.78494e-09
3.03615e-08
1.10501e-06
-5.55072e-09
2.74276e-08
1.08229e-06
-5.34022e-09
2.48104e-08
1.06172e-06
-5.13663e-09
2.24526e-08
1.04311e-06
-4.92942e-09
2.03231e-08
1.02625e-06
-4.71482e-09
1.84093e-08
1.01095e-06
-4.49352e-09
1.6706e-08
9.97038e-07
-4.26876e-09
1.5201e-08
9.8436e-07
-4.0453e-09
1.38685e-08
9.72793e-07
-3.82746e-09
1.26735e-08
9.62239e-07
-3.61708e-09
1.15875e-08
9.52609e-07
-3.41214e-09
1.05998e-08
9.43818e-07
-3.20538e-09
9.7058e-09
9.35797e-07
-2.98741e-09
8.88788e-09
9.28491e-07
-2.75456e-09
8.1263e-09
9.21851e-07
-2.51149e-09
7.41577e-09
9.15825e-07
-2.26288e-09
6.75053e-09
9.1038e-07
-2.00647e-09
6.1138e-09
9.0549e-07
-1.73705e-09
5.49463e-09
9.01129e-07
-1.45558e-09
4.89748e-09
8.9726e-07
-1.17286e-09
4.33657e-09
8.93834e-07
-9.04856e-10
3.83279e-09
8.90787e-07
-6.6804e-10
3.40745e-09
8.88054e-07
-4.71888e-10
3.06744e-09
8.85584e-07
-3.18407e-10
2.79408e-09
8.8336e-07
-2.03321e-10
2.5458e-09
8.814e-07
-1.20436e-10
2.27918e-09
8.79734e-07
-6.50819e-11
1.96989e-09
8.78395e-07
-3.4311e-11
1.6138e-09
8.77399e-07
-2.62767e-11
1.22384e-09
8.76743e-07
-4.05339e-11
8.24698e-10
8.76409e-07
-7.6533e-11
4.34759e-10
-1.2739e-10
6.35719e-11
1.3035e-06
-1.23027e-08
5.26932e-08
1.26033e-06
-1.11401e-08
4.68936e-08
1.22182e-06
-1.01689e-08
4.18251e-08
1.18738e-06
-9.3546e-09
3.7386e-08
1.15648e-06
-8.67323e-09
3.35133e-08
1.12865e-06
-8.10053e-09
3.01386e-08
1.10354e-06
-7.60764e-09
2.71732e-08
1.08083e-06
-7.16628e-09
2.45334e-08
1.06029e-06
-6.75499e-09
2.21621e-08
1.04169e-06
-6.36216e-09
2.00266e-08
1.02485e-06
-5.98626e-09
1.81136e-08
1.00957e-06
-5.6315e-09
1.64204e-08
9.95664e-07
-5.30148e-09
1.49351e-08
9.82988e-07
-4.9955e-09
1.36269e-08
9.71416e-07
-4.70821e-09
1.24524e-08
9.60858e-07
-4.43285e-09
1.13741e-08
9.5123e-07
-4.16498e-09
1.03799e-08
9.4245e-07
-3.90091e-09
9.47559e-09
9.3444e-07
-3.63463e-09
8.65714e-09
9.27141e-07
-3.36103e-09
7.90633e-09
9.20501e-07
-3.07936e-09
7.20708e-09
9.14481e-07
-2.78946e-09
6.54697e-09
9.09047e-07
-2.48871e-09
5.91654e-09
9.04168e-07
-2.17565e-09
5.31726e-09
8.9981e-07
-1.85502e-09
4.75763e-09
8.95931e-07
-1.53967e-09
4.24565e-09
8.92482e-07
-1.24791e-09
3.79226e-09
8.89403e-07
-9.97629e-10
3.40887e-09
8.86633e-07
-7.99534e-10
3.09739e-09
8.84126e-07
-6.53144e-10
2.8413e-09
8.81866e-07
-5.47486e-10
2.60454e-09
8.79867e-07
-4.6686e-10
2.3449e-09
8.78165e-07
-3.97902e-10
2.03478e-09
8.76794e-07
-3.33783e-10
1.67111e-09
8.75769e-07
-2.74464e-10
1.27249e-09
8.75089e-07
-2.23537e-10
8.63641e-10
8.74741e-07
-1.83205e-10
4.54984e-10
-1.50742e-10
5.15091e-11
1.29936e-06
-1.49488e-08
5.12613e-08
1.25613e-06
-1.34857e-08
4.55821e-08
1.21757e-06
-1.22286e-08
4.06144e-08
1.1831e-06
-1.1143e-08
3.62575e-08
1.15219e-06
-1.02112e-08
3.24515e-08
1.12437e-06
-9.41454e-09
2.91334e-08
1.09927e-06
-8.72355e-09
2.62191e-08
1.07658e-06
-8.10598e-09
2.36278e-08
1.05606e-06
-7.53787e-09
2.13046e-08
1.03749e-06
-7.0079e-09
1.92183e-08
1.02066e-06
-6.51691e-09
1.73555e-08
1.00539e-06
-6.07164e-09
1.57103e-08
9.91497e-07
-5.67504e-09
1.42681e-08
9.78824e-07
-5.32119e-09
1.29981e-08
9.67254e-07
-4.99607e-09
1.18585e-08
9.56695e-07
-4.68407e-09
1.08103e-08
9.47069e-07
-4.37755e-09
9.83815e-09
9.38295e-07
-4.07708e-09
8.95016e-09
9.30293e-07
-3.78272e-09
8.1497e-09
9.23e-07
-3.4911e-09
7.42331e-09
9.16366e-07
-3.19856e-09
6.75357e-09
9.10352e-07
-2.90116e-09
6.12584e-09
9.04926e-07
-2.59542e-09
5.53184e-09
9.00057e-07
-2.28249e-09
4.9763e-09
8.95702e-07
-1.97017e-09
4.47e-09
8.91815e-07
-1.67194e-09
4.01992e-09
8.88341e-07
-1.40428e-09
3.62998e-09
8.85225e-07
-1.18157e-09
3.30016e-09
8.82413e-07
-1.01077e-09
3.02322e-09
8.79865e-07
-8.88725e-10
2.78377e-09
8.77564e-07
-8.01353e-10
2.55435e-09
8.75526e-07
-7.27595e-10
2.29845e-09
8.73788e-07
-6.48773e-10
1.98962e-09
8.72383e-07
-5.57178e-10
1.6277e-09
8.7133e-07
-4.56333e-10
1.23478e-09
8.70627e-07
-3.53034e-10
8.33244e-10
8.70265e-07
-2.49172e-10
4.27523e-10
-1.4438e-10
1.89995e-11
1.28407e-06
-1.25538e-08
4.61182e-08
1.24095e-06
-1.13091e-08
4.0946e-08
1.20252e-06
-1.0222e-08
3.64277e-08
1.16817e-06
-9.26781e-09
3.24708e-08
1.13738e-06
-8.43722e-09
2.90166e-08
1.10968e-06
-7.72016e-09
2.60048e-08
1.08469e-06
-7.09488e-09
2.33593e-08
1.06211e-06
-6.5355e-09
2.10089e-08
1.04169e-06
-6.02338e-09
1.89062e-08
1.02321e-06
-5.55074e-09
1.70244e-08
1.00646e-06
-5.11921e-09
1.53483e-08
9.91262e-07
-4.73417e-09
1.38649e-08
9.77428e-07
-4.39694e-09
1.25562e-08
9.6481e-07
-4.10107e-09
1.13976e-08
9.53287e-07
-3.83286e-09
1.036e-08
9.42766e-07
-3.57642e-09
9.41333e-09
9.33171e-07
-3.32351e-09
8.54105e-09
9.24425e-07
-3.07615e-09
7.74526e-09
9.16451e-07
-2.83792e-09
7.02873e-09
9.09185e-07
-2.60858e-09
6.38347e-09
9.02576e-07
-2.38547e-09
5.79679e-09
8.96584e-07
-2.1642e-09
5.25501e-09
8.9118e-07
-1.94047e-09
4.74818e-09
8.86334e-07
-1.71485e-09
4.27867e-09
8.82001e-07
-1.49418e-09
3.85712e-09
8.78127e-07
-1.28899e-09
3.49119e-09
8.74652e-07
-1.11024e-09
3.18089e-09
8.71519e-07
-9.65209e-10
2.9171e-09
8.68678e-07
-8.55405e-10
2.68523e-09
8.66095e-07
-7.76682e-10
2.4711e-09
8.63755e-07
-7.18129e-10
2.25647e-09
8.61675e-07
-6.62895e-10
2.0157e-09
8.59892e-07
-5.95648e-10
1.72946e-09
8.58446e-07
-5.11256e-10
1.39996e-09
8.57358e-07
-4.14846e-10
1.04693e-09
8.56629e-07
-3.12917e-10
6.88646e-10
8.56256e-07
-2.05661e-10
3.2971e-10
-9.2383e-11
-2.87295e-11
1.20237e-06
3.43449e-08
1.1607e-06
3.03602e-08
1.12358e-06
2.68991e-08
1.09043e-06
2.38873e-08
1.06072e-06
2.12719e-08
1.034e-06
1.89993e-08
1.00989e-06
1.70088e-08
9.88111e-07
1.5246e-08
9.68413e-07
1.3675e-08
9.50587e-07
1.22753e-08
9.34435e-07
1.10322e-08
9.19772e-07
9.92966e-09
9.06426e-07
8.94901e-09
8.94251e-07
8.07388e-09
8.83127e-07
7.29104e-09
8.72963e-07
6.58751e-09
8.63686e-07
5.95298e-09
8.55227e-07
5.38333e-09
8.47514e-07
4.87507e-09
8.40485e-07
4.42068e-09
8.34089e-07
4.0104e-09
8.28291e-07
3.63406e-09
8.23065e-07
3.28497e-09
8.18385e-07
2.96543e-09
8.14207e-07
2.68332e-09
8.10475e-07
2.44341e-09
8.07122e-07
2.24257e-09
8.04087e-07
2.06978e-09
8.01321e-07
1.91088e-09
7.98789e-07
1.75472e-09
7.9648e-07
1.59123e-09
7.9441e-07
1.40708e-09
7.92623e-07
1.19152e-09
7.91166e-07
9.46182e-10
7.90066e-07
6.84513e-10
7.89332e-07
4.21375e-10
7.88958e-07
1.67794e-10
-7.07586e-11
1.38656e-06
8.95967e-09
8.65457e-08
1.33635e-06
7.94657e-09
7.6439e-08
1.29175e-06
7.099e-09
6.77702e-08
1.25196e-06
6.37836e-09
6.02954e-08
1.21636e-06
5.75751e-09
5.38203e-08
1.18439e-06
5.21914e-09
4.81911e-08
1.15559e-06
4.75016e-09
4.328e-08
1.12959e-06
4.3391e-09
3.89769e-08
1.10606e-06
3.97602e-09
3.51869e-08
1.08471e-06
3.65197e-09
3.18317e-08
1.06531e-06
3.3584e-09
2.88471e-08
1.04767e-06
3.08869e-09
2.61762e-08
1.03163e-06
2.84052e-09
2.37678e-08
1.01702e-06
2.61569e-09
2.1582e-08
1.00372e-06
2.41691e-09
1.95944e-08
9.91588e-07
2.24366e-09
1.77877e-08
9.80522e-07
2.09088e-09
1.61426e-08
9.70428e-07
1.95236e-09
1.4639e-08
9.61224e-07
1.82367e-09
1.32622e-08
9.52841e-07
1.70046e-09
1.2e-08
9.45225e-07
1.5776e-09
1.08345e-08
9.38331e-07
1.45294e-09
9.7482e-09
9.32116e-07
1.32888e-09
8.73498e-09
9.26532e-07
1.2101e-09
7.7997e-09
9.21527e-07
1.10229e-09
6.94694e-09
9.17043e-07
1.01135e-09
6.17315e-09
9.13028e-07
9.4021e-10
5.46761e-09
9.09433e-07
8.86556e-10
4.81829e-09
9.06223e-07
8.4356e-10
4.21588e-09
9.0337e-07
8.02566e-10
3.65269e-09
9.00861e-07
7.55729e-10
3.12189e-09
8.98688e-07
6.96371e-10
2.61931e-09
8.96851e-07
6.19475e-10
2.14441e-09
8.95352e-07
5.24718e-10
1.70088e-09
8.94182e-07
4.18546e-10
1.2961e-09
8.93326e-07
3.08749e-10
9.35801e-10
8.92756e-07
2.04744e-10
6.21875e-10
1.11515e-10
3.47447e-10
1.45534e-06
1.16214e-08
1.07774e-07
1.40339e-06
1.02764e-08
9.54686e-08
1.35722e-06
9.15302e-09
8.48983e-08
1.31604e-06
8.20243e-09
7.57574e-08
1.27919e-06
7.38814e-09
6.78136e-08
1.24611e-06
6.68476e-09
6.08864e-08
1.21633e-06
6.07311e-09
5.48243e-08
1.18946e-06
5.53698e-09
4.94973e-08
1.16516e-06
5.0619e-09
4.4798e-08
1.14313e-06
4.63506e-09
4.06358e-08
1.12314e-06
4.24624e-09
3.69259e-08
1.10499e-06
3.88945e-09
3.35907e-08
1.08849e-06
3.56392e-09
3.05717e-08
1.07348e-06
3.27263e-09
2.78333e-08
1.05981e-06
3.01881e-09
2.53508e-08
1.04736e-06
2.8014e-09
2.30967e-08
1.03601e-06
2.61376e-09
2.1038e-08
1.02566e-06
2.44746e-09
1.91467e-08
1.01623e-06
2.29589e-09
1.74053e-08
1.00764e-06
2.15293e-09
1.5794e-08
9.99843e-07
2.0121e-09
1.42881e-08
9.92777e-07
1.86971e-09
1.2876e-08
9.86391e-07
1.72662e-09
1.15635e-08
9.80637e-07
1.58683e-09
1.03578e-08
9.75464e-07
1.45655e-09
9.25959e-09
9.70826e-07
1.34266e-09
8.26807e-09
9.66674e-07
1.24928e-09
7.37863e-09
9.62968e-07
1.17576e-09
6.57643e-09
9.5967e-07
1.11713e-09
5.83569e-09
9.56753e-07
1.06541e-09
5.12915e-09
9.54197e-07
1.01091e-09
4.44191e-09
9.51988e-07
9.4291e-10
3.77168e-09
9.50118e-07
8.5216e-10
3.11997e-09
9.48582e-07
7.3562e-10
2.49422e-09
9.47372e-07
5.98337e-10
1.9091e-09
9.46474e-07
4.50366e-10
1.37608e-09
9.45869e-07
3.04523e-10
9.03017e-10
1.69023e-10
4.89117e-10
1.46471e-06
1.05983e-08
1.1715e-07
1.4127e-06
9.34494e-09
1.03861e-07
1.36644e-06
8.29455e-09
9.24629e-08
1.32517e-06
7.40406e-09
8.26181e-08
1.28824e-06
6.64084e-09
7.40658e-08
1.25508e-06
5.98135e-09
6.65999e-08
1.22524e-06
5.40702e-09
6.00543e-08
1.19832e-06
4.90158e-09
5.42968e-08
1.17398e-06
4.45063e-09
4.92176e-08
1.15193e-06
4.04258e-09
4.47125e-08
1.13194e-06
3.6701e-09
4.06788e-08
1.1138e-06
3.33061e-09
3.70328e-08
1.09732e-06
3.02536e-09
3.37249e-08
1.08234e-06
2.75747e-09
3.0731e-08
1.06871e-06
2.52931e-09
2.80322e-08
1.05629e-06
2.33945e-09
2.5595e-08
1.04497e-06
2.1818e-09
2.33721e-08
1.03466e-06
2.04835e-09
2.13248e-08
1.02526e-06
1.93215e-09
1.94323e-08
1.0167e-06
1.82675e-09
1.76744e-08
1.00893e-06
1.72579e-09
1.6026e-08
1.00189e-06
1.62478e-09
1.44778e-08
9.95511e-07
1.52217e-09
1.30367e-08
9.89756e-07
1.41879e-09
1.17064e-08
9.84578e-07
1.31808e-09
1.04866e-08
9.79932e-07
1.22545e-09
9.38015e-09
9.75777e-07
1.14594e-09
8.38774e-09
9.72074e-07
1.08232e-09
7.49508e-09
9.68786e-07
1.03401e-09
6.67224e-09
9.65884e-07
9.96169e-10
5.89049e-09
9.63342e-07
9.59692e-10
5.13728e-09
9.61143e-07
9.12409e-10
4.40612e-09
9.59278e-07
8.42524e-10
3.68688e-09
9.57739e-07
7.4386e-10
2.97954e-09
9.56521e-07
6.18267e-10
2.29959e-09
9.55613e-07
4.74124e-10
1.66755e-09
9.55e-07
3.2383e-10
1.10472e-09
1.78314e-10
6.15705e-10
1.46578e-06
7.74548e-09
1.20404e-07
1.41388e-06
6.80346e-09
1.0677e-07
1.36771e-06
6.00346e-09
9.50955e-08
1.32651e-06
5.31699e-09
8.50246e-08
1.28962e-06
4.72272e-09
7.62808e-08
1.2565e-06
4.20523e-09
6.86467e-08
1.2267e-06
3.75126e-09
6.19521e-08
1.19981e-06
3.34836e-09
5.60639e-08
1.17551e-06
2.98599e-09
5.08636e-08
1.1535e-06
2.65706e-09
4.6232e-08
1.13356e-06
2.35864e-09
4.20603e-08
1.11547e-06
2.0912e-09
3.82761e-08
1.09905e-06
1.85685e-09
3.48455e-08
1.08413e-06
1.65769e-09
3.17527e-08
1.07056e-06
1.49451e-09
2.8979e-08
1.05819e-06
1.36561e-09
2.6486e-08
1.04692e-06
1.26648e-09
2.42195e-08
1.03665e-06
1.19113e-09
2.21368e-08
1.0273e-06
1.13374e-09
2.02154e-08
1.01878e-06
1.08859e-09
1.84301e-08
1.01104e-06
1.04999e-09
1.67531e-08
1.00402e-06
1.01327e-09
1.51787e-08
9.97659e-07
9.7519e-10
1.37143e-08
9.91915e-07
9.33841e-10
1.2354e-08
9.86744e-07
8.89628e-10
1.10864e-08
9.82107e-07
8.45751e-10
9.91419e-09
9.77964e-07
8.07095e-10
8.84746e-09
9.74276e-07
7.78331e-10
7.88446e-09
9.71006e-07
7.61529e-10
7.00582e-09
9.68118e-07
7.54193e-10
6.19219e-09
9.65585e-07
7.48629e-10
5.43301e-09
9.63388e-07
7.33388e-10
4.70946e-09
9.61518e-07
6.96722e-10
3.99305e-09
9.59971e-07
6.31178e-10
3.27141e-09
9.58743e-07
5.35961e-10
2.55664e-09
9.57828e-07
4.16682e-10
1.8743e-09
9.57212e-07
2.83401e-10
1.25448e-09
1.47735e-10
7.08364e-10
1.46548e-06
1.21167e-07
1.41368e-06
3.59629e-09
1.07457e-07
1.36759e-06
3.12524e-09
9.57184e-08
1.32645e-06
2.70669e-09
8.55875e-08
1.28961e-06
2.33315e-09
7.67916e-08
1.25654e-06
1.99925e-09
6.912e-08
1.22678e-06
1.69983e-09
6.24024e-08
1.19992e-06
1.42965e-09
5.6494e-08
1.17565e-06
1.1848e-09
5.12601e-08
1.15368e-06
9.63767e-10
4.65737e-08
1.13378e-06
7.67437e-10
4.23364e-08
1.11574e-06
5.98002e-10
3.84936e-08
1.09937e-06
4.57395e-10
3.5021e-08
1.08449e-06
3.46165e-10
3.19006e-08
1.07096e-06
2.63366e-10
2.91082e-08
1.05863e-06
2.07033e-10
2.66039e-08
1.0474e-06
1.74309e-10
2.43371e-08
1.03717e-06
1.61857e-10
2.22701e-08
1.02784e-06
1.66332e-10
2.03755e-08
1.01934e-06
1.83946e-10
1.86155e-08
1.01162e-06
2.09959e-10
1.69589e-08
1.00462e-06
2.39699e-10
1.54077e-08
9.98264e-07
2.69492e-10
1.39702e-08
9.92523e-07
2.96696e-10
1.2626e-08
9.87355e-07
3.20157e-10
1.13468e-08
9.82723e-07
3.4073e-10
1.0132e-08
9.78591e-07
3.60967e-10
9.00405e-09
9.74916e-07
3.84026e-10
7.98183e-09
9.71658e-07
4.11653e-10
7.06666e-09
9.68778e-07
4.42173e-10
6.25107e-09
9.66246e-07
4.69966e-10
5.51987e-09
9.64042e-07
4.86321e-10
4.83621e-09
9.6216e-07
4.81973e-10
4.15422e-09
9.60596e-07
4.50747e-10
3.45134e-09
9.59353e-07
3.91121e-10
2.73339e-09
9.58425e-07
3.06266e-10
2.02385e-09
9.57805e-07
2.03081e-10
1.35622e-09
9.14771e-11
7.49958e-10
1.4134e-06
1.8034e-10
1.07505e-07
1.36734e-06
7.01121e-11
9.57474e-08
1.32623e-06
-5.15423e-11
8.55793e-08
1.28942e-06
-1.79193e-10
7.67453e-08
1.25638e-06
-3.08676e-10
6.90511e-08
1.22663e-06
-4.36101e-10
6.23256e-08
1.1998e-06
-5.5754e-10
5.64071e-08
1.17556e-06
-6.69153e-10
5.11462e-08
1.15362e-06
-7.67112e-10
4.64195e-08
1.13375e-06
-8.47655e-10
4.2145e-08
1.11574e-06
-9.07847e-10
3.82811e-08
1.09939e-06
-9.46623e-10
3.48035e-08
1.08455e-06
-9.6503e-10
3.16868e-08
1.07104e-06
-9.6526e-10
2.88995e-08
1.05874e-06
-9.49209e-10
2.64007e-08
1.04754e-06
-9.17899e-10
2.41477e-08
1.03732e-06
-8.71745e-10
2.21092e-08
1.02801e-06
-8.11136e-10
2.02525e-08
1.01953e-06
-7.3761e-10
1.85295e-08
1.01182e-06
-6.54494e-10
1.69081e-08
1.00482e-06
-5.65572e-10
1.53956e-08
9.9847e-07
-4.736e-10
1.39967e-08
9.92728e-07
-3.80393e-10
1.2679e-08
9.87558e-07
-2.87561e-10
1.14043e-08
9.82927e-07
-1.96754e-10
1.01705e-08
9.78798e-07
-1.09644e-10
9.00831e-09
9.7513e-07
-2.75888e-11
7.95356e-09
9.71877e-07
4.79773e-11
7.02767e-09
9.68997e-07
1.15351e-10
6.23248e-09
9.66458e-07
1.71362e-10
5.54356e-09
9.64241e-07
2.11668e-10
4.90688e-09
9.62339e-07
2.31956e-10
4.26534e-09
9.60755e-07
2.29847e-10
3.58988e-09
9.59491e-07
2.04999e-10
2.87911e-09
9.58548e-07
1.58838e-10
2.15095e-09
9.5792e-07
9.47398e-11
1.43998e-09
1.88808e-11
7.74179e-10
1.41329e-06
-3.2776e-09
1.07679e-07
1.36723e-06
-3.01368e-09
9.58735e-08
1.32611e-06
-2.82027e-09
8.56348e-08
1.2893e-06
-2.68237e-09
7.6727e-08
1.25626e-06
-2.58865e-09
6.89722e-08
1.22652e-06
-2.52722e-09
6.21999e-08
1.1997e-06
-2.48495e-09
5.62366e-08
1.17547e-06
-2.45005e-09
5.09271e-08
1.15355e-06
-2.41353e-09
4.61555e-08
1.1337e-06
-2.36943e-09
4.18504e-08
1.1157e-06
-2.31515e-09
3.79736e-08
1.09938e-06
-2.25111e-09
3.44995e-08
1.08455e-06
-2.17934e-09
3.13982e-08
1.07106e-06
-2.10177e-09
2.863e-08
1.05878e-06
-2.01867e-09
2.61471e-08
1.04758e-06
-1.92845e-09
2.39071e-08
1.03738e-06
-1.82893e-09
2.18826e-08
1.02808e-06
-1.71842e-09
2.00441e-08
1.01961e-06
-1.59653e-09
1.83463e-08
1.0119e-06
-1.46466e-09
1.67574e-08
1.0049e-06
-1.32466e-09
1.5278e-08
9.98553e-07
-1.1774e-09
1.39039e-08
9.9281e-07
-1.02359e-09
1.26011e-08
9.87639e-07
-8.65426e-10
1.13372e-08
9.83005e-07
-7.07413e-10
1.01123e-08
9.78873e-07
-5.5624e-10
8.95568e-09
9.752e-07
-4.19022e-10
7.90745e-09
9.71941e-07
-3.01002e-10
6.99902e-09
9.69052e-07
-2.04746e-10
6.23639e-09
9.66499e-07
-1.30491e-10
5.58844e-09
9.64263e-07
-7.69856e-11
4.99179e-09
9.6234e-07
-4.16249e-11
4.38381e-09
9.60732e-07
-2.11055e-11
3.73018e-09
9.59447e-07
-1.33902e-11
3.02362e-09
9.58486e-07
-1.84339e-11
2.27932e-09
9.57845e-07
-3.64461e-11
1.53216e-09
-6.55768e-11
8.14609e-10
1.41339e-06
-6.59357e-09
1.07905e-07
1.36726e-06
-5.96316e-09
9.60405e-08
1.3261e-06
-5.45209e-09
8.57203e-08
1.28926e-06
-5.03956e-09
7.67218e-08
1.2562e-06
-4.71111e-09
6.88806e-08
1.22645e-06
-4.44972e-09
6.20326e-08
1.19962e-06
-4.23436e-09
5.60034e-08
1.17539e-06
-4.04536e-09
5.06381e-08
1.15347e-06
-3.86862e-09
4.58248e-08
1.13363e-06
-3.69679e-09
4.14934e-08
1.11565e-06
-3.52895e-09
3.76057e-08
1.09933e-06
-3.36755e-09
3.41388e-08
1.08451e-06
-3.21455e-09
3.10619e-08
1.07102e-06
-3.06944e-09
2.83252e-08
1.05873e-06
-2.92845e-09
2.58672e-08
1.04754e-06
-2.78611e-09
2.36366e-08
1.03734e-06
-2.63839e-09
2.16082e-08
1.02805e-06
-2.48331e-09
1.97662e-08
1.01958e-06
-2.31967e-09
1.80792e-08
1.01187e-06
-2.14672e-09
1.65147e-08
1.00487e-06
-1.96371e-09
1.50577e-08
9.98518e-07
-1.76943e-09
1.36937e-08
9.92774e-07
-1.56396e-09
1.23979e-08
9.876e-07
-1.35083e-09
1.11547e-08
9.82959e-07
-1.13779e-09
9.96843e-09
9.78816e-07
-9.36222e-10
8.85943e-09
9.7513e-07
-7.58125e-10
7.85867e-09
9.71853e-07
-6.11814e-10
6.99468e-09
9.68943e-07
-5.00117e-10
6.27251e-09
9.66367e-07
-4.20406e-10
5.66017e-09
9.64107e-07
-3.65158e-10
5.09453e-09
9.62158e-07
-3.23836e-10
4.51044e-09
9.60525e-07
-2.86577e-10
3.86804e-09
9.59216e-07
-2.48847e-10
3.15785e-09
9.58236e-07
-2.12126e-10
2.39812e-09
9.5758e-07
-1.79865e-10
1.62397e-09
9.57241e-07
-1.54203e-10
8.62766e-10
-1.34928e-10
1.31771e-10
1.41339e-06
-9.26782e-09
1.07338e-07
1.36717e-06
-8.33423e-09
9.54897e-08
1.32593e-06
-7.55207e-09
8.51635e-08
1.28903e-06
-6.89837e-09
7.61399e-08
1.25593e-06
-6.35983e-09
6.82644e-08
1.22615e-06
-5.91815e-09
6.13842e-08
1.19931e-06
-5.54662e-09
5.53307e-08
1.17506e-06
-5.21881e-09
4.99512e-08
1.15314e-06
-4.91639e-09
4.51345e-08
1.13329e-06
-4.63196e-09
4.08097e-08
1.1153e-06
-4.36737e-09
3.69394e-08
1.09898e-06
-4.12706e-09
3.35026e-08
1.08415e-06
-3.91198e-09
3.04669e-08
1.07065e-06
-3.71784e-09
2.77746e-08
1.05835e-06
-3.53537e-09
2.53536e-08
1.04715e-06
-3.3543e-09
2.31427e-08
1.03695e-06
-3.16918e-09
2.11164e-08
1.02765e-06
-2.97927e-09
1.92725e-08
1.01917e-06
-2.78414e-09
1.75959e-08
1.01146e-06
-2.58208e-09
1.60553e-08
1.00445e-06
-2.37027e-09
1.46235e-08
9.98092e-07
-2.14534e-09
1.32791e-08
9.92345e-07
-1.90662e-09
1.2007e-08
9.87164e-07
-1.65919e-09
1.08059e-08
9.82513e-07
-1.41409e-09
9.68484e-09
9.78354e-07
-1.18651e-09
8.65546e-09
9.74644e-07
-9.91273e-10
7.73504e-09
9.7134e-07
-8.37665e-10
6.93901e-09
9.68399e-07
-7.27605e-10
6.26574e-09
9.6579e-07
-6.55655e-10
5.68595e-09
9.63495e-07
-6.08973e-10
5.1433e-09
9.61512e-07
-5.69703e-10
4.574e-09
9.59847e-07
-5.22001e-10
3.9352e-09
9.58509e-07
-4.59624e-10
3.21973e-09
9.57503e-07
-3.85977e-10
2.45219e-09
9.56828e-07
-3.07271e-10
1.66638e-09
9.56477e-07
-2.28281e-10
8.79776e-10
-1.53436e-10
1.07289e-10
1.41201e-06
-1.03079e-08
1.04415e-07
1.36567e-06
-9.24457e-09
9.28258e-08
1.32436e-06
-8.33655e-09
8.27179e-08
1.2874e-06
-7.56279e-09
7.38754e-08
1.25426e-06
-6.91464e-09
6.61497e-08
1.22445e-06
-6.37645e-09
5.93977e-08
1.19759e-06
-5.92008e-09
5.34584e-08
1.17333e-06
-5.51626e-09
4.81849e-08
1.15139e-06
-5.14547e-09
4.34705e-08
1.13153e-06
-4.80168e-09
3.9247e-08
1.11353e-06
-4.48907e-09
3.5476e-08
1.0972e-06
-4.21325e-09
3.21322e-08
1.08235e-06
-3.97426e-09
2.91793e-08
1.06883e-06
-3.76508e-09
2.65608e-08
1.05652e-06
-3.57218e-09
2.42071e-08
1.0453e-06
-3.38104e-09
2.20555e-08
1.03508e-06
-3.18487e-09
2.00771e-08
1.02576e-06
-2.98463e-09
1.82732e-08
1.01727e-06
-2.78224e-09
1.66388e-08
1.00954e-06
-2.57736e-09
1.51491e-08
1.00251e-06
-2.36678e-09
1.3776e-08
9.96144e-07
-2.14511e-09
1.24956e-08
9.90385e-07
-1.9099e-09
1.12937e-08
9.85195e-07
-1.66649e-09
1.01734e-08
9.80533e-07
-1.42794e-09
9.14627e-09
9.76356e-07
-1.21135e-09
8.2215e-09
9.72621e-07
-1.03158e-09
7.40505e-09
9.69284e-07
-8.96047e-10
6.69582e-09
9.66304e-07
-8.04665e-10
6.08075e-09
9.63649e-07
-7.50633e-10
5.53316e-09
9.61305e-07
-7.18895e-10
5.00848e-09
9.5927e-07
-6.87895e-10
4.4512e-09
9.57555e-07