/*--------------------------------*- C++ -*----------------------------------*\
| =========                 |                                                 |
| \\      /  F ield         | OpenFOAM: The Open Source CFD Toolbox           |
|  \\    /   O peration     | Version:  2.3.1                                 |
|   \\  /    A nd           | Web:      www.OpenFOAM.org                      |
|    \\/     M anipulation  |                                                 |
\*---------------------------------------------------------------------------*/
FoamFile
{
    version     2.0;
    format      ascii;
    class       volScalarField;
    location    "15";
    object      Sed;
}
// * * * * * * * * * * * * * * * * * * * * * * * * * * * * * * * * * * * * * //

dimensions      [0 0 0 0 0 0 0];

internalField   nonuniform List<scalar> 
38262
(
1.47305e-21
7.00543e-23
3.94254e-24
2.57597e-25
1.85783e-26
1.41497e-27
1.10761e-28
8.78085e-30
6.99386e-31
5.57042e-32
4.4234e-33
3.49502e-34
2.74383e-35
2.13812e-36
1.65246e-37
1.26587e-38
9.60733e-40
7.22124e-41
5.37408e-42
3.95909e-43
2.88691e-44
2.08346e-45
1.48811e-46
1.05188e-47
7.35793e-49
5.09317e-50
3.48857e-51
2.36444e-52
1.58577e-53
1.05248e-54
6.91336e-56
4.49482e-57
2.89293e-58
1.84338e-59
1.16303e-60
7.26611e-62
4.49537e-63
2.75428e-64
2.38308e-20
1.58812e-21
1.13432e-22
8.55383e-24
6.69922e-25
5.37436e-26
4.37139e-27
3.57924e-28
2.93557e-29
2.40341e-30
1.95949e-31
1.58812e-32
1.2779e-33
1.01993e-34
8.06836e-36
6.3225e-37
4.9056e-38
3.76754e-39
2.86341e-40
2.15328e-41
1.602e-42
1.1791e-43
8.58514e-45
6.18351e-46
4.40554e-47
3.10474e-48
2.16425e-49
1.49228e-50
1.01784e-51
6.86806e-53
4.58529e-54
3.0292e-55
1.9805e-56
1.28161e-57
8.20951e-59
5.20583e-60
3.26806e-61
2.03116e-62
1.44054e-19
1.12901e-20
9.09899e-22
7.48908e-23
6.25496e-24
5.2719e-25
4.46338e-26
3.78203e-27
3.19816e-28
2.69293e-29
2.25404e-30
1.87306e-31
1.54369e-32
1.26081e-33
1.01986e-34
8.16632e-36
6.47055e-37
5.07195e-38
3.93231e-39
3.01511e-40
2.28617e-41
1.71416e-42
1.27091e-43
9.31749e-45
6.75453e-46
4.84178e-47
3.43189e-48
2.40544e-49
1.66732e-50
1.143e-51
7.75043e-53
5.19886e-54
3.45024e-55
2.26572e-56
1.47241e-57
9.47015e-59
6.02858e-60
3.79867e-61
4.24577e-19
3.63644e-20
3.15199e-21
2.75361e-22
2.41601e-23
2.12251e-24
1.86225e-25
1.62826e-26
1.41625e-27
1.22368e-28
1.04911e-29
8.91691e-31
7.50814e-32
6.25919e-33
5.16366e-34
4.21388e-35
3.40072e-36
2.71358e-37
2.14061e-38
1.66924e-39
1.28669e-40
9.80392e-42
7.38397e-43
5.49729e-44
4.04565e-45
2.94324e-46
2.11677e-47
1.50506e-48
1.05801e-49
7.35406e-51
5.05478e-52
3.43611e-53
2.31037e-54
1.53679e-55
1.0114e-56
6.58662e-58
4.24484e-59
2.70739e-60
7.72814e-19
6.95476e-20
6.29069e-21
5.70125e-22
5.16423e-23
4.66534e-24
4.19589e-25
3.75123e-26
3.32959e-27
2.93116e-28
2.55726e-29
2.20959e-30
1.88977e-31
1.59907e-32
1.33819e-33
1.10721e-34
9.05544e-36
7.3197e-37
5.84711e-38
4.61567e-39
3.6006e-40
2.77566e-41
2.11452e-42
1.59194e-43
1.1845e-44
8.71104e-46
6.3322e-47
4.54999e-48
3.23191e-49
2.2695e-50
1.57564e-51
1.08166e-52
7.34347e-54
4.93131e-55
3.27602e-56
2.15335e-57
1.40058e-58
9.01485e-60
9.25571e-20
8.5378e-21
7.87389e-22
7.24331e-23
6.63439e-24
6.04118e-25
5.46202e-26
4.89837e-27
4.35371e-28
3.83256e-29
3.33963e-30
2.87926e-31
2.45506e-32
2.06965e-33
1.72455e-34
1.42011e-35
1.15552e-36
9.29002e-38
7.37949e-39
5.79184e-40
4.49157e-41
3.44174e-42
2.60602e-43
1.94999e-44
1.44206e-45
1.05405e-46
7.61529e-48
5.43842e-49
3.83919e-50
2.67927e-51
1.84865e-52
1.26134e-53
8.51194e-55
5.68232e-56
3.75313e-57
2.45292e-58
1.58647e-59
9.25322e-20
8.53542e-21
7.87178e-22
7.24169e-23
6.63337e-24
6.04077e-25
5.46215e-26
4.89898e-27
4.35474e-28
3.83391e-29
3.34117e-30
2.88085e-31
2.45658e-32
2.07103e-33
1.72576e-34
1.42113e-35
1.15638e-36
9.29698e-38
7.38501e-39
5.79609e-40
4.49472e-41
3.44402e-42
2.60764e-43
1.95114e-44
1.44287e-45
1.05461e-46
7.61919e-48
5.44104e-49
3.84083e-50
2.6802e-51
1.8491e-52
1.26149e-53
8.51184e-55
5.6816e-56
3.75233e-57
2.45229e-58
1.58607e-59
6.94486e-20
6.2806e-21
5.69257e-22
5.15745e-23
4.66057e-24
4.19296e-25
3.74986e-26
3.32955e-27
2.93222e-28
2.55916e-29
2.21202e-30
1.89244e-31
1.60171e-32
1.34062e-33
1.10935e-34
9.07369e-36
7.33496e-37
5.85959e-38
4.6256e-39
3.60824e-40
2.78134e-41
2.11863e-42
1.59487e-43
1.18656e-44
8.72547e-46
6.34224e-47
4.5569e-48
3.23652e-49
2.27238e-50
1.57727e-51
1.08244e-52
7.34602e-54
4.93115e-55
3.27477e-56
2.15195e-57
1.39947e-58
9.00762e-60
5.73374e-61
3.62822e-20
3.14409e-21
2.7469e-22
2.41073e-23
2.1187e-24
1.85975e-25
1.62686e-26
1.41575e-27
1.22393e-28
1.04994e-29
8.92907e-31
7.52225e-32
6.27351e-33
5.17702e-34
4.2257e-35
3.41085e-36
2.72205e-37
2.14753e-38
1.67475e-39
1.29093e-40
9.83535e-42
7.40666e-43
5.51337e-44
4.05692e-45
2.95107e-46
2.12218e-47
1.50875e-48
1.06046e-49
7.36921e-51
5.06324e-52
3.44006e-53
2.31161e-54
1.53663e-55
1.01071e-56
6.57917e-58
4.23898e-59
2.70358e-60
1.70682e-61
1.12576e-20
9.0697e-22
7.46507e-23
6.23642e-24
5.25849e-25
4.45437e-26
3.77658e-27
3.19556e-28
2.69261e-29
2.25549e-30
1.87572e-31
1.547e-32
1.26428e-33
1.02314e-34
8.1954e-36
6.49534e-37
5.09253e-38
3.94898e-39
3.02824e-40
2.29618e-41
1.72153e-42
1.27617e-43
9.35422e-45
6.77985e-46
4.85911e-47
3.44367e-48
2.41333e-49
1.67243e-50
1.14611e-51
7.76747e-53
5.20659e-54
3.45246e-55
2.26518e-56
1.47088e-57
9.45436e-59
6.01636e-60
3.79073e-61
2.36494e-62
1.58297e-21
1.12999e-22
8.52003e-24
6.67382e-25
5.35606e-26
4.35884e-27
3.57119e-28
2.93099e-29
2.40154e-30
1.95969e-31
1.58976e-32
1.28038e-33
1.02272e-34
8.0956e-36
6.34693e-37
4.92641e-38
3.78468e-39
2.87718e-40
2.16404e-41
1.61016e-42
1.18505e-43
8.62713e-45
6.21242e-46
4.42519e-47
3.11803e-48
2.17319e-49
1.4982e-50
1.02163e-51
6.89092e-53
4.59768e-54
3.03478e-55
1.98207e-56
1.2812e-57
8.19833e-59
5.19443e-60
3.25928e-61
2.02542e-62
1.24664e-63
6.98398e-23
3.92629e-24
2.56421e-25
1.84929e-26
1.40885e-27
1.10334e-28
8.75241e-30
6.97619e-31
5.56089e-32
4.41996e-33
3.49588e-34
2.74739e-35
2.14299e-36
1.65764e-37
1.27071e-38
9.64925e-40
7.25588e-41
5.40174e-42
3.98053e-43
2.90301e-44
2.09514e-45
1.49629e-46
1.05744e-47
7.39506e-49
5.11769e-50
3.50463e-51
2.37481e-52
1.59229e-53
1.05637e-54
6.93463e-56
4.50479e-57
2.89623e-58
1.84329e-59
1.16162e-60
7.25007e-62
4.48237e-63
2.74543e-64
1.66604e-65
1.00858e-20
5.8671e-22
3.85233e-23
2.77631e-24
2.12453e-25
1.68317e-26
1.35854e-27
1.10626e-28
9.03366e-30
7.3688e-31
5.98832e-32
4.8393e-33
3.88371e-34
3.09218e-35
2.44066e-36
1.90859e-37
1.47803e-38
1.13312e-39
8.59761e-41
6.45526e-42
4.79551e-43
3.52463e-44
2.56292e-45
1.84366e-46
1.31202e-47
9.2362e-49
6.43183e-50
4.43065e-51
3.01934e-52
2.03564e-53
1.35794e-54
8.96402e-56
5.85623e-57
3.78686e-58
2.424e-59
1.53606e-60
9.63678e-62
5.9859e-63
1.94028e-19
1.39379e-20
1.05254e-21
8.27532e-23
6.69821e-24
5.52554e-25
4.6085e-26
3.86305e-27
3.24052e-28
2.71179e-29
2.25877e-30
1.86956e-31
1.53576e-32
1.25088e-33
1.00949e-34
8.06731e-36
6.38137e-37
4.99483e-38
3.86767e-39
2.96232e-40
2.24401e-41
1.68114e-42
1.24553e-43
9.12565e-45
6.61182e-46
4.73716e-47
3.35625e-48
2.35148e-49
1.62933e-50
1.1166e-51
7.56933e-53
5.07623e-54
3.36823e-55
2.21153e-56
1.43701e-57
9.24142e-59
5.88236e-60
3.70619e-61
1.1686e-18
9.54813e-20
7.95821e-21
6.73895e-22
5.77187e-23
4.97884e-24
4.30898e-25
3.7296e-26
3.22002e-27
2.76731e-28
2.36349e-29
2.00353e-30
1.68404e-31
1.40243e-32
1.15641e-33
9.43679e-35
7.61838e-36
6.08289e-37
4.80266e-38
3.74905e-39
2.8933e-40
2.2074e-41
1.66484e-42
1.24126e-43
9.14849e-45
6.66561e-46
4.80114e-47
3.41885e-48
2.40702e-49
1.67566e-50
1.15357e-51
7.85425e-53
5.28961e-54
3.52417e-55
2.32303e-56
1.51517e-57
9.77934e-59
6.2464e-60
3.40207e-18
3.00977e-19
2.68155e-20
2.40038e-21
2.15371e-22
1.93247e-23
1.73039e-24
1.54337e-25
1.36898e-26
1.20599e-27
1.054e-28
9.1307e-30
7.83467e-31
6.65471e-32
5.59263e-33
4.6485e-34
3.82026e-35
3.10362e-36
2.49216e-37
1.97777e-38
1.55112e-39
1.20221e-40
9.20814e-42
6.96991e-43
5.21384e-44
3.85461e-45
2.81653e-46
2.03415e-47
1.45217e-48
1.02485e-49
7.15072e-51
4.93332e-52
3.3658e-53
2.27121e-54
1.51603e-55
1.00112e-56
6.54093e-58
4.2286e-59
6.1744e-18
5.72095e-19
5.30728e-20
4.92096e-21
4.55298e-22
4.19708e-23
3.84936e-24
3.50807e-25
3.17329e-26
2.84649e-27
2.53005e-28
2.22685e-29
1.93978e-30
1.67153e-31
1.42432e-32
1.19978e-33
9.98844e-35
8.21725e-36
6.67947e-37
5.36439e-38
4.25651e-39
3.33689e-40
2.58458e-41
1.97792e-42
1.49562e-43
1.11753e-44
8.25172e-46
6.02153e-47
4.34283e-48
3.09582e-49
2.18151e-50
1.51972e-51
1.0468e-52
7.13056e-54
4.80409e-55
3.20172e-56
2.11101e-57
1.37711e-58
7.61238e-19
7.19639e-20
6.78622e-21
6.37389e-22
5.95506e-23
5.528e-24
5.09334e-25
4.65372e-26
4.21342e-27
3.7777e-28
3.3523e-29
2.9429e-30
2.55478e-31
2.19246e-32
1.85951e-33
1.55837e-34
1.29031e-35
1.05542e-36
8.52808e-38
6.80726e-39
5.36777e-40
4.18143e-41
3.21797e-42
2.44679e-43
1.83826e-44
1.36471e-45
1.00121e-46
7.25907e-48
5.20163e-49
3.68415e-50
2.57943e-51
1.78554e-52
1.22221e-53
8.27427e-55
5.54096e-56
3.67086e-57
2.40612e-58
7.61147e-19
7.19532e-20
6.78516e-21
6.37306e-22
5.95457e-23
5.52789e-24
5.09359e-25
4.65433e-26
4.21434e-27
3.77887e-28
3.35362e-29
2.94428e-30
2.55612e-31
2.1937e-32
1.86061e-33
1.55933e-34
1.29112e-35
1.05609e-36
8.53352e-38
6.81153e-39
5.37102e-40
4.18383e-41
3.21972e-42
2.44806e-43
1.83916e-44
1.36535e-45
1.00165e-46
7.26208e-48
5.20355e-49
3.68525e-50
2.57998e-51
1.78574e-52
1.22223e-53
8.27363e-55
5.54014e-56
3.67018e-57
2.40567e-58
5.71484e-19
5.30059e-20
4.91506e-21
4.54833e-22
4.19377e-23
3.84733e-24
3.5072e-25
3.17343e-26
2.84748e-27
2.53172e-28
2.22897e-29
1.94212e-30
1.67388e-31
1.42653e-32
1.20177e-33
1.00057e-34
8.23199e-36
6.69173e-37
5.37431e-38
4.26429e-39
3.34281e-40
2.58896e-41
1.98111e-42
1.49792e-43
1.11916e-44
8.26327e-46
6.02955e-47
4.34822e-48
3.09923e-49
2.18346e-50
1.52069e-51
1.04715e-52
7.13073e-54
4.80285e-55
3.20021e-56
2.10976e-57
1.37629e-58
8.87541e-60
3.00439e-19
2.67609e-20
2.39563e-21
2.14992e-22
1.9297e-23
1.72856e-24
1.54237e-25
1.36869e-26
1.2063e-27
1.05479e-28
9.14187e-30
7.84759e-31
6.66799e-32
5.60525e-33
4.65988e-34
3.8302e-35
3.11208e-36
2.49919e-37
1.98345e-38
1.55557e-39
1.20558e-40
9.23303e-42
6.98795e-43
5.22674e-44
3.86374e-45
2.82293e-46
2.03856e-47
1.45511e-48
1.02669e-49
7.16116e-51
4.93838e-52
3.36754e-53
2.2712e-54
1.5153e-55
1.00027e-56
6.53397e-58
4.22399e-59
2.70229e-60
9.52579e-20
7.93696e-21
6.72104e-22
5.75777e-23
4.96846e-24
4.30192e-25
3.72535e-26
3.2181e-27
2.76731e-28
2.36501e-29
2.00611e-30
1.68722e-31
1.40579e-32
1.15964e-33
9.46599e-35
7.64376e-36
6.10435e-37
4.82036e-38
3.76324e-39
2.90433e-40
2.21569e-41
1.67089e-42
1.24558e-43
9.17898e-45
6.68691e-46
4.81586e-47
3.42885e-48
2.41358e-49
1.6797e-50
1.15582e-51
7.86484e-53
5.29298e-54
3.52381e-55
2.32123e-56
1.51319e-57
9.76348e-59
6.2359e-60
3.94272e-61
1.38997e-20
1.04912e-21
8.24756e-23
6.67684e-24
5.50989e-25
4.59766e-26
3.8561e-27
3.23669e-28
2.71046e-29
2.25939e-30
1.87157e-31
1.53859e-32
1.25402e-33
1.01256e-34
8.09515e-36
6.40545e-37
5.01502e-38
3.88417e-39
2.97543e-40
2.25411e-41
1.68865e-42
1.25094e-43
9.16371e-45
6.63828e-46
4.75543e-47
3.36878e-48
2.35992e-49
1.63481e-50
1.11994e-51
7.58771e-53
5.08465e-54
3.37071e-55
2.21101e-56
1.43538e-57
9.22431e-59
5.86895e-60
3.69734e-61
2.30646e-62
5.84983e-22
3.83792e-23
2.76517e-24
2.11612e-25
1.67703e-26
1.35423e-27
1.1034e-28
9.0164e-30
7.36035e-31
5.98661e-32
4.84239e-33
3.88976e-34
3.0996e-35
2.44824e-36
1.91559e-37
1.48411e-38
1.13818e-39
8.63854e-41
6.48741e-42
4.81997e-43
3.5426e-44
2.57568e-45
1.85249e-46
1.31803e-47
9.27675e-49
6.45899e-50
4.44855e-51
3.03075e-52
2.04251e-53
1.3617e-54
8.98138e-56
5.86161e-57
3.78617e-58
2.42101e-59
1.53285e-60
9.61126e-62
5.96877e-63
3.67149e-64
3.60427e-20
2.46801e-21
1.81851e-22
1.41179e-23
1.13399e-24
9.29891e-26
7.71318e-27
6.43092e-28
5.36601e-29
4.46706e-30
3.70177e-31
3.04861e-32
2.49211e-33
2.02025e-34
1.62294e-35
1.29126e-36
1.01707e-37
7.92825e-39
6.11488e-40
4.66566e-41
3.52132e-42
2.62869e-43
1.94089e-44
1.41736e-45
1.02367e-46
7.31202e-48
5.1654e-49
3.60888e-50
2.49381e-51
1.70458e-52
1.15259e-53
7.71058e-55
5.10397e-56
3.34341e-57
2.1676e-58
1.39095e-59
8.83514e-61
5.55545e-62
7.85599e-19
6.0277e-20
4.79275e-21
3.92162e-22
3.27633e-23
2.77469e-24
2.36789e-25
2.02677e-26
1.73383e-27
1.47845e-28
1.25411e-29
1.05664e-30
8.83253e-32
7.31843e-33
6.00653e-34
4.88049e-35
3.92426e-36
3.12156e-37
2.45588e-38
1.91073e-39
1.46995e-40
1.11812e-41
8.40913e-43
6.25282e-44
4.5968e-45
3.34109e-46
2.40091e-47
1.70584e-48
1.1984e-49
8.3255e-51
5.72015e-52
3.88726e-53
2.61321e-54
1.73801e-55
1.14372e-56
7.44773e-58
4.79945e-59
3.06096e-60
4.72062e-18
4.01331e-19
3.45736e-20
3.01062e-21
2.64193e-22
2.329e-23
2.05641e-24
1.81382e-25
1.59461e-26
1.39473e-27
1.21188e-28
1.04482e-29
8.92959e-31
7.5596e-32
6.33548e-33
5.25371e-34
4.30923e-35
3.49513e-36
2.80266e-37
2.22159e-38
1.74062e-39
1.34795e-40
1.03172e-41
7.80478e-43
5.83548e-44
4.31237e-45
3.14987e-46
2.2742e-47
1.62314e-48
1.14529e-49
7.99008e-51
5.51205e-52
3.76058e-53
2.53765e-54
1.69392e-55
1.11863e-56
7.30892e-58
4.72529e-59
1.3658e-17
1.24633e-18
1.14029e-19
1.04477e-20
9.57236e-22
8.75637e-23
7.98447e-24
7.24658e-25
6.5373e-26
5.85507e-27
5.2012e-28
4.57879e-29
3.99186e-30
3.4445e-31
2.94033e-32
2.48212e-33
2.07147e-34
1.70871e-35
1.39293e-36
1.12206e-37
8.9311e-39
7.02395e-40
5.45811e-41
4.19075e-42
3.17938e-43
2.38347e-44
1.7657e-45
1.29267e-46
9.3532e-48
6.68913e-49
4.72892e-50
3.30511e-51
2.28401e-52
1.56083e-53
1.05492e-54
7.05236e-56
4.66394e-57
3.0515e-58
2.47865e-17
2.36076e-18
2.2431e-19
2.1246e-20
2.00426e-21
1.88134e-22
1.75541e-23
1.62654e-24
1.49533e-25
1.36283e-26
1.2305e-27
1.09998e-28
9.73051e-30
8.51402e-31
7.36585e-32
6.29899e-33
5.32328e-34
4.44503e-35
3.66698e-36
2.98848e-37
2.40595e-38
1.91343e-39
1.50325e-40
1.16669e-41
8.94544e-43
6.77642e-44
5.07197e-45
3.75112e-46
2.74147e-47
1.98008e-48
1.41352e-49
9.97443e-51
6.95829e-52
4.79962e-53
3.27388e-54
2.20867e-55
1.47388e-56
9.72963e-58
3.14318e-18
3.04042e-19
2.92663e-20
2.80103e-21
2.66348e-22
2.51434e-23
2.35457e-24
2.18576e-25
2.01009e-26
1.83022e-27
1.64912e-28
1.46982e-29
1.29534e-30
1.1284e-31
9.71407e-33
8.26244e-34
6.94264e-35
5.76248e-36
4.72433e-37
3.82569e-38
3.05998e-39
2.41755e-40
1.88667e-41
1.45447e-42
1.10773e-43
8.33522e-45
6.19697e-46
4.55254e-47
3.30501e-48
2.37125e-49
1.68159e-50
1.17885e-51
8.17077e-53
5.60014e-54
3.79603e-55
2.54515e-56
1.68808e-57
3.14321e-18
3.04031e-19
2.92645e-20
2.80087e-21
2.66339e-22
2.51435e-23
2.3547e-24
2.186e-25
2.01045e-26
1.83068e-27
1.64963e-28
1.47037e-29
1.29588e-30
1.12892e-31
9.71877e-33
8.2666e-34
6.94624e-35
5.76553e-36
4.72684e-37
3.8277e-38
3.06155e-39
2.41874e-40
1.88756e-41
1.45513e-42
1.10821e-43
8.33863e-45
6.19937e-46
4.55417e-47
3.30606e-48
2.37187e-49
1.68191e-50
1.17899e-51
8.17107e-53
5.59995e-54
3.79569e-55
2.54484e-56
1.68786e-57
2.35898e-18
2.24096e-19
2.12263e-20
2.00267e-21
1.88016e-22
1.75466e-23
1.62621e-24
1.49537e-25
1.3632e-26
1.23113e-27
1.10081e-28
9.7398e-30
8.5236e-31
7.37511e-32
6.30752e-33
5.33089e-34
4.45166e-35
3.6726e-36
2.99312e-37
2.40966e-38
1.91632e-39
1.50544e-40
1.16832e-41
8.95748e-43
6.78514e-44
5.0782e-45
3.75548e-46
2.74442e-47
1.98197e-48
1.41463e-49
9.98019e-51
6.96064e-52
4.80006e-53
3.27346e-54
2.20799e-55
1.47326e-56
9.72546e-58
6.34475e-59
1.24463e-18
1.13845e-19
1.0431e-20
9.55866e-22
8.74598e-23
7.97736e-24
7.24252e-25
6.53598e-26
5.85613e-27
5.20419e-28
4.58321e-29
3.99712e-30
3.45006e-31
2.94577e-32
2.48716e-33
2.07597e-34
1.71263e-35
1.39625e-36
1.1248e-37
8.95295e-39
7.0409e-40
5.47093e-41
4.20026e-42
3.18632e-43
2.38847e-44
1.76925e-45
1.29514e-46
9.36979e-48
6.69965e-49
4.73503e-50
3.30821e-51
2.28521e-52
1.56099e-53
1.05462e-54
7.04818e-56
4.66029e-57
3.04899e-58
1.97367e-59
4.00588e-19
3.44983e-20
3.00401e-21
2.63655e-22
2.3249e-23
2.05352e-24
1.81201e-25
1.59374e-26
1.39466e-27
1.21245e-28
1.04587e-29
8.94299e-31
7.57419e-32
6.34992e-33
5.26714e-34
4.32121e-35
3.50548e-36
2.81138e-37
2.22872e-38
1.74628e-39
1.3523e-40
1.03497e-41
7.82864e-43
5.85269e-44
4.32463e-45
3.15849e-46
2.28013e-47
1.62707e-48
1.14775e-49
8.00412e-51
5.51896e-52
3.76309e-53
2.53778e-54
1.69305e-55
1.11755e-56
7.29975e-58
4.71898e-59
3.01933e-60
6.01393e-20
4.77957e-21
3.91048e-22
3.26744e-23
2.76797e-24
2.36309e-25
2.02361e-26
1.73203e-27
1.47779e-28
1.25435e-29
1.05755e-30
8.84572e-32
7.33349e-33
6.02167e-34
4.8946e-35
3.93677e-36
3.13229e-37
2.46484e-38
1.91799e-39
1.47565e-40
1.12246e-41
8.44115e-43
6.27591e-44
4.61324e-45
3.35269e-46
2.40902e-47
1.71138e-48
1.20205e-49
8.34806e-51
5.7328e-52
3.89327e-53
2.61518e-54
1.73786e-55
1.14273e-56
7.43663e-58
4.79042e-59
3.05483e-60
1.92862e-61
2.46125e-21
1.81246e-22
1.40684e-23
1.1301e-24
9.26958e-26
7.69208e-27
6.41663e-28
5.35723e-29
4.46272e-30
3.70093e-31
3.05033e-32
2.49547e-33
2.02441e-34
1.62726e-35
1.29532e-36
1.02067e-37
7.95883e-39
6.14012e-40
4.68588e-41
3.537e-42
2.64044e-43
1.94942e-44
1.42339e-45
1.02788e-46
7.34115e-48
5.18536e-49
3.6223e-50
2.50252e-51
1.7099e-52
1.15554e-53
7.72446e-55
5.10845e-56
3.34302e-57
2.1653e-58
1.3884e-59
8.81454e-61
5.54143e-62
3.44998e-63
9.3649e-20
7.07056e-21
5.58661e-22
4.55744e-23
3.79713e-24
3.20465e-25
2.72299e-26
2.31898e-27
1.9728e-28
1.67232e-29
1.4099e-30
1.18053e-31
9.80655e-33
8.07492e-34
6.58658e-35
5.31931e-36
4.25157e-37
3.36212e-38
2.63e-39
2.03473e-40
1.55678e-41
1.17786e-42
8.8124e-44
6.51961e-45
4.76942e-46
3.45001e-47
2.46767e-48
1.74534e-49
1.22076e-50
8.44445e-52
5.77761e-53
3.91029e-54
2.61824e-55
1.7346e-56
1.13718e-57
7.37786e-59
4.73738e-60
3.01083e-61
2.05974e-18
1.67177e-19
1.39136e-20
1.18105e-21
1.01669e-22
8.82933e-24
7.70129e-25
6.72264e-26
5.85634e-27
5.07999e-28
4.38029e-29
3.74945e-30
3.18276e-31
2.67707e-32
2.22974e-33
1.8381e-34
1.4991e-35
1.20924e-36
9.64559e-38
7.60695e-39
5.93086e-40
4.57116e-41
3.48277e-42
2.62305e-43
1.95283e-44
1.43715e-45
1.04551e-46
7.519e-48
5.34603e-49
3.75821e-50
2.61248e-51
1.79597e-52
1.22116e-53
8.21341e-55
5.46513e-56
3.59786e-57
2.34364e-58
1.5107e-59
1.24523e-17
1.0992e-18
9.77833e-20
8.75277e-21
7.8672e-22
7.0843e-23
6.37669e-24
5.72545e-25
5.11852e-26
4.54909e-27
4.01411e-28
3.51302e-29
3.04669e-30
2.61654e-31
2.22401e-32
1.87008e-33
1.55506e-34
1.27845e-35
1.03894e-36
8.34472e-38
6.6238e-39
5.19587e-40
4.02768e-41
3.08528e-42
2.33551e-43
1.74713e-44
1.29165e-45
9.4376e-47
6.81571e-48
4.86555e-49
3.43375e-50
2.39592e-51
1.65308e-52
1.12794e-53
7.61203e-55
5.08142e-56
3.35571e-57
2.19248e-58
3.61821e-17
3.40284e-18
3.19622e-19
2.99702e-20
2.80324e-21
2.61287e-22
2.42425e-23
2.2364e-24
2.04912e-25
1.86296e-26
1.67916e-27
1.49938e-28
1.32554e-29
1.15958e-30
1.00335e-31
8.58395e-33
7.25919e-34
6.06686e-35
5.01015e-36
4.08794e-37
3.29532e-38
2.62432e-39
2.06472e-40
1.60484e-41
1.23237e-42
9.34996e-44
7.00902e-45
5.19176e-46
3.80028e-47
2.74916e-48
1.96568e-49
1.38932e-50
9.70792e-52
6.70715e-53
4.5824e-54
3.09631e-55
2.06938e-56
1.36811e-57
6.60136e-17
6.45933e-18
6.2845e-19
6.07925e-20
5.84513e-21
5.58336e-22
5.29528e-23
4.98292e-24
4.6493e-25
4.29853e-26
3.93575e-27
3.56682e-28
3.19801e-29
2.83564e-30
2.48569e-31
2.1535e-32
1.84354e-33
1.55919e-34
1.30267e-35
1.07505e-36
8.76321e-38
7.05561e-39
5.61106e-40
4.40762e-41
3.42005e-42
2.62153e-43
1.98517e-44
1.48522e-45
1.09793e-46
8.02011e-48
5.78973e-49
4.13102e-50
2.91362e-51
2.03163e-52
1.40073e-53
9.55022e-55
6.4399e-56
4.2953e-57
8.62283e-18
8.53225e-19
8.38086e-20
8.16986e-21
7.9013e-22
7.57809e-23
7.20425e-24
6.78527e-25
6.32818e-26
5.84147e-27
5.33471e-28
4.81814e-29
4.30209e-30
3.79654e-31
3.31055e-32
2.85192e-33
2.42684e-34
2.03972e-35
1.69316e-36
1.38809e-37
1.1239e-38
8.98744e-40
7.09831e-41
5.53745e-42
4.26705e-43
3.24817e-44
2.44274e-45
1.815e-46
1.33251e-47
9.6674e-49
6.93171e-50
4.91271e-51
3.44204e-52
2.38444e-53
1.6334e-54
1.10661e-55
7.41537e-57
8.62367e-18
8.5326e-19
8.38092e-20
8.16984e-21
7.90137e-22
7.57833e-23
7.20474e-24
6.78603e-25
6.32921e-26
5.84273e-27
5.33615e-28
4.81967e-29
4.30363e-30
3.79801e-31
3.31192e-32
2.85315e-33
2.42792e-34
2.04064e-35
1.69394e-36
1.38873e-37
1.1244e-38
8.99131e-40
7.10126e-41
5.53965e-42
4.26867e-43
3.24935e-44
2.44357e-45
1.81557e-46
1.33288e-47
9.66962e-49
6.9329e-50
4.91324e-51
3.44219e-52
2.38441e-53
1.63331e-54
1.10651e-55
7.4147e-57
6.45581e-18
6.27982e-19
6.07479e-20
5.84145e-21
5.58063e-22
5.29356e-23
4.9822e-24
4.64951e-25
4.29959e-26
3.93752e-27
3.56912e-28
3.20063e-29
2.83838e-30
2.48837e-31
2.15602e-32
1.84583e-33
1.56121e-34
1.30441e-35
1.0765e-36
8.77504e-38
7.06498e-39
5.61831e-40
4.41313e-41
3.42416e-42
2.62455e-43
1.98734e-44
1.48676e-45
1.09897e-46
8.02683e-48
5.79373e-49
4.13313e-50
2.91453e-51
2.03185e-52
1.40062e-53
9.54812e-55
6.43791e-56
4.29394e-57
2.82974e-58
3.39917e-18
3.19198e-19
2.99306e-20
2.79992e-21
2.61031e-22
2.42248e-23
2.2354e-24
2.04882e-25
1.8633e-26
1.68003e-27
1.50065e-28
1.32706e-29
1.16121e-30
1.00497e-31
8.59924e-33
7.27309e-34
6.07914e-35
5.0207e-36
4.09674e-37
3.30246e-38
2.62996e-39
2.06906e-40
1.60811e-41
1.2348e-42
9.36767e-44
7.02173e-45
5.20064e-46
3.80626e-47
2.75297e-48
1.96791e-49
1.39047e-50
9.71256e-52
6.70797e-53
4.58148e-54
3.09489e-55
2.0681e-56
1.36722e-57
8.94149e-59
1.09751e-18
9.7603e-20
8.73647e-21
7.85364e-22
7.07377e-23
6.36914e-24
5.7207e-25
5.11629e-26
4.54906e-27
4.01591e-28
3.51619e-29
3.05073e-30
2.62099e-31
2.22848e-32
1.8743e-33
1.55889e-34
1.28182e-35
1.04182e-36
8.36859e-38
6.64303e-39
5.2109e-40
4.03912e-41
3.09381e-42
2.34176e-43
1.75165e-44
1.29486e-45
9.45983e-47
6.83052e-48
4.87485e-49
3.43909e-50
2.39857e-51
1.65406e-52
1.12802e-53
7.60888e-55
5.07735e-56
3.3522e-57
2.19004e-58
1.41588e-59
1.66843e-19
1.38801e-20
1.17813e-21
1.01431e-22
8.81102e-24
7.68807e-25
6.7139e-26
5.85148e-27
5.07841e-28
4.3814e-29
3.75256e-30
3.18716e-31
2.68209e-32
2.23484e-33
1.84291e-34
1.50343e-35
1.21302e-36
9.67757e-38
7.63324e-39
5.95179e-40
4.58731e-41
3.49487e-42
2.63192e-43
1.95926e-44
1.44175e-45
1.04875e-46
7.54133e-48
5.36077e-49
3.76732e-50
2.61758e-51
1.79838e-52
1.22193e-53
8.21245e-55
5.46076e-56
3.59304e-57
2.33973e-58
1.50804e-59
9.62136e-61
7.05256e-21
5.56972e-22
4.54314e-23
3.78562e-24
3.19581e-25
2.71656e-26
2.3146e-27
1.97013e-28
1.67107e-29
1.4098e-30
1.18128e-31
9.81947e-33
8.09055e-34
6.60275e-35
5.33463e-36
4.26532e-37
3.374e-38
2.63994e-39
2.0428e-40
1.56313e-41
1.18268e-42
8.84795e-44
6.5452e-45
4.78759e-46
3.46279e-47
2.47655e-48
1.75138e-49
1.22469e-50
8.46846e-52
5.79086e-53
3.91642e-54
2.62008e-55
1.73424e-56
1.13597e-57
7.36501e-59
4.7271e-60
3.00388e-61
1.89004e-62
1.89859e-19
1.5313e-20
1.27176e-21
1.07785e-22
9.25602e-24
8.00885e-25
6.952e-26
6.03365e-27
5.22221e-28
4.49839e-29
3.85045e-30
3.27109e-31
2.75554e-32
2.29999e-33
1.90104e-34
1.55522e-35
1.25884e-36
1.00789e-37
7.9805e-39
6.24838e-40
4.83711e-41
3.70225e-42
2.80157e-43
2.09598e-44
1.55031e-45
1.13367e-46
8.19607e-48
5.85856e-49
4.1407e-50
2.89395e-51
2.00025e-52
1.36743e-53
9.24714e-55
6.18645e-56
4.095e-57
2.68215e-58
1.73846e-59
1.11514e-60
4.12964e-18
3.51274e-19
3.03975e-20
2.66469e-21
2.35627e-22
2.0936e-23
1.86296e-24
1.65562e-25
1.46618e-26
1.2915e-27
1.12994e-28
9.80793e-30
8.43843e-31
7.19109e-32
6.06633e-33
5.06355e-34
4.18049e-35
3.41293e-36
2.75468e-37
2.19787e-38
1.73333e-39
1.3511e-40
1.04091e-41
7.92598e-43
5.96494e-44
4.43686e-45
3.26193e-46
2.37043e-47
1.7028e-48
1.20928e-49
8.49098e-51
5.89533e-52
4.0479e-53
2.749e-54
1.84668e-55
1.22721e-56
8.06865e-58
5.24892e-59
2.52106e-17
2.30146e-18
2.10813e-19
1.93571e-20
1.77913e-21
1.63413e-22
1.49741e-23
1.36666e-24
1.24055e-25
1.11852e-26
1.00063e-27
8.87376e-29
7.7951e-30
6.7787e-31
5.83258e-32
4.96352e-33
4.17633e-34
3.47354e-35
2.85527e-36
2.31935e-37
1.86163e-38
1.47643e-39
1.15696e-40
8.95785e-42
6.85299e-43
5.18034e-44
3.86953e-45
2.85631e-46
2.0837e-47
1.50241e-48
1.0708e-49
7.54475e-51
5.25594e-52
3.62056e-53
2.46646e-54
1.66185e-55
1.10758e-56
7.30235e-58
7.39841e-17
7.15236e-18
6.88371e-19
6.59585e-20
6.29012e-21
5.96682e-22
5.62607e-23
5.26858e-24
4.89611e-25
4.51171e-26
4.1196e-27
3.72497e-28
3.33354e-29
2.95124e-30
2.58372e-31
2.2361e-32
1.91263e-33
1.61653e-34
1.34985e-35
1.11352e-36
9.07387e-38
7.30399e-39
5.80762e-40
4.56154e-41
3.53926e-42
2.71281e-43
2.05428e-44
1.53695e-45
1.13621e-46
8.30037e-48
5.99266e-49
4.27638e-50
3.01662e-51
2.10381e-52
1.45074e-53
9.8928e-55
6.67188e-56
4.45059e-57
1.36124e-16
1.36538e-17
1.35802e-18
1.33984e-19
1.31143e-20
1.27331e-21
1.226e-22
1.17015e-23
1.10658e-24
1.03635e-25
9.60755e-27
8.81279e-28
7.99535e-29
7.1719e-30
6.35877e-31
5.57117e-32
4.82247e-33
4.1236e-34
3.48275e-35
2.90521e-36
2.39345e-37
1.94742e-38
1.5649e-39
1.24199e-40
9.73573e-42
7.53815e-43
5.76549e-44
4.35626e-45
3.25188e-46
2.3985e-47
1.74814e-48
1.2592e-49
8.96494e-51
6.3095e-52
4.39028e-53
3.02062e-54
2.05523e-55
1.38301e-56
1.82987e-17
1.84926e-18
1.85118e-19
1.83586e-20
1.80375e-21
1.75552e-22
1.6921e-23
1.61474e-24
1.52506e-25
1.42503e-26
1.31694e-27
1.2033e-28
1.08673e-29
9.69848e-31
8.55122e-32
7.4477e-33
6.40669e-34
5.44282e-35
4.56636e-36
3.78322e-37
3.09527e-38
2.50086e-39
1.99548e-40
1.57251e-41
1.22393e-42
9.40958e-44
7.14602e-45
5.36137e-46
3.97416e-47
2.91085e-48
2.10693e-49
1.50727e-50
1.06587e-51
7.45163e-53
5.15097e-54
3.52106e-55
2.3804e-56
1.83016e-17
1.84944e-18
1.85128e-19
1.83593e-20
1.80382e-21
1.75562e-22
1.69224e-23
1.61493e-24
1.52529e-25
1.42531e-26
1.31725e-27
1.20363e-28
1.08707e-29
9.70179e-31
8.55431e-32
7.45053e-33
6.4092e-34
5.445e-35
4.56821e-36
3.78475e-37
3.0965e-38
2.50182e-39
1.99622e-40
1.57308e-41
1.22436e-42
9.41265e-44
7.1482e-45
5.36286e-46
3.97513e-47
2.91143e-48
2.10724e-49
1.50742e-50
1.06592e-51
7.45161e-53
5.15077e-54
3.52085e-55
2.38025e-56
1.36483e-17
1.35721e-18
1.33905e-19
1.31077e-20
1.27282e-21
1.2257e-22
1.17004e-23
1.10665e-24
1.0366e-25
9.61156e-27
8.81793e-28
8.00122e-29
7.17807e-30
6.3649e-31
5.57701e-32
4.82783e-33
4.12839e-34
3.48692e-35
2.90874e-36
2.39636e-37
1.94976e-38
1.56673e-39
1.2434e-40
9.74637e-42
7.54605e-43
5.77122e-44
4.36031e-45
3.25464e-46
2.40028e-47
1.7492e-48
1.25976e-49
8.96739e-51
6.31012e-52
4.39004e-53
3.02009e-54
2.05472e-55
1.38267e-56
9.19164e-58
7.14606e-18
6.87599e-19
6.58845e-20
6.28383e-21
5.96193e-22
5.62269e-23
5.2667e-24
4.89569e-25
4.51261e-26
4.12164e-27
3.72788e-28
3.33703e-29
2.955e-30
2.5875e-31
2.23972e-32
1.91597e-33
1.61951e-34
1.35244e-35
1.1157e-36
9.09182e-38
7.31833e-39
5.8188e-40
4.57008e-41
3.54567e-42
2.71754e-43
2.05769e-44
1.53934e-45
1.13782e-46
8.31061e-48
5.99865e-49
4.27945e-50
3.01785e-51
2.10402e-52
1.45048e-53
9.88892e-55
6.66838e-56
4.44818e-57
2.93486e-58
2.29843e-18
2.10475e-19
1.93257e-20
1.77647e-21
1.63204e-22
1.4959e-23
1.36573e-24
1.24015e-25
1.11858e-26
1.00109e-27
8.88145e-29
7.80479e-30
6.78937e-31
5.84339e-32
4.97386e-33
4.18583e-34
3.48199e-35
2.86257e-36
2.32546e-37
1.86661e-38
1.48037e-39
1.15999e-40
8.98079e-42
6.87001e-43
5.19276e-44
3.87841e-45
2.86248e-46
2.08781e-47
1.50498e-48
1.07227e-49
7.55198e-51
5.25854e-52
3.62066e-53
2.46548e-54
1.66064e-55
1.10654e-56
7.29521e-58
4.75883e-59
3.50637e-19
3.03314e-20
2.6588e-21
2.35141e-22
2.08982e-23
1.86024e-24
1.65385e-25
1.46524e-26
1.29129e-27
1.13034e-28
9.81645e-30
8.44995e-31
7.20408e-32
6.07955e-33
5.07614e-34
4.19195e-35
3.42302e-36
2.76331e-37
2.20503e-38
1.73909e-39
1.35559e-40
1.04431e-41
7.95125e-43
5.98343e-44
4.45021e-45
3.2714e-46
2.37694e-47
1.70708e-48
1.2119e-49
8.50543e-51
5.90191e-52
4.04974e-53
2.74839e-54
1.84514e-55
1.22562e-56
8.05599e-58
5.24046e-59
3.37391e-60
1.52742e-20
1.26803e-21
1.07467e-22
9.23045e-24
7.98945e-25
6.93811e-26
6.02451e-27
5.21709e-28
4.49668e-29
3.85151e-30
3.27418e-31
2.75979e-32
2.30469e-33
1.90568e-34
1.55958e-35
1.26277e-36
1.01131e-37
8.00939e-39
6.27204e-40
4.85588e-41
3.71666e-42
2.81231e-43
2.10381e-44
1.55593e-45
1.13767e-46
8.22405e-48
5.87759e-49
4.15304e-50
2.90141e-51
2.00428e-52
1.36921e-53
9.25149e-55
6.18405e-56
4.09022e-57
2.67741e-58
1.73477e-59
1.1127e-60
7.06558e-62
3.16326e-19
2.6803e-20
2.31467e-21
2.0244e-22
1.7841e-23
1.578e-24
1.3962e-25
1.2326e-26
1.08352e-27
9.46861e-29
8.21506e-30
7.06917e-31
6.02856e-32
5.09178e-33
4.25708e-34
3.52173e-35
2.88189e-36
2.33218e-37
1.86608e-38
1.47616e-39
1.15434e-40
8.9233e-42
6.81868e-43
5.1506e-44
3.84587e-45
2.83866e-46
2.07121e-47
1.494e-48
1.06543e-49
7.51252e-51
5.2381e-52
3.61192e-53
2.4634e-54
1.66193e-55
1.10922e-56
7.32481e-58
4.78609e-59
3.09456e-60
6.81326e-18
6.02911e-19
5.39438e-20
4.86358e-21
4.40451e-22
3.99491e-23
3.61978e-24
3.26959e-25
2.93875e-26
2.62455e-27
2.32621e-28
2.04421e-29
1.77973e-30
1.53411e-31
1.30862e-32
1.10419e-33
9.21324e-35
7.59998e-36
6.19687e-37
4.99391e-38
3.97727e-39
3.13033e-40
2.43473e-41
1.87139e-42
1.42146e-43
1.067e-44
7.9155e-46
5.80358e-47
4.20584e-48
3.01293e-49
2.13378e-50
1.49411e-51
1.03452e-52
7.08395e-54
4.79772e-55
3.21413e-56
2.1301e-57
1.39662e-58
4.21148e-17
3.9607e-18
3.72451e-19
3.49986e-20
3.28315e-21
3.07097e-22
2.86057e-23
2.65022e-24
2.43924e-25
2.22804e-26
2.01788e-27
1.81065e-28
1.60865e-29
1.41431e-30
1.22996e-31
1.05765e-32
8.99029e-34
7.55263e-35
6.26969e-36
5.14245e-37
4.16717e-38
3.33614e-39
2.6386e-40
2.06174e-41
1.59159e-42
1.2139e-43
9.14763e-45
6.81145e-46
5.01198e-47
3.64469e-48
2.61961e-49
1.86118e-50
1.30728e-51
9.07875e-53
6.23468e-54
4.23429e-55
2.84428e-56
1.88985e-57
1.25274e-16
1.24141e-17
1.22155e-18
1.19394e-19
1.15914e-20
1.11756e-21
1.06952e-22
1.01545e-23
9.55897e-25
8.91644e-26
8.23667e-27
7.53127e-28
6.81303e-29
6.09531e-30
5.39121e-31
4.71291e-32
4.07106e-33
3.4743e-34
2.92897e-35
2.43901e-36
2.00605e-37
1.62964e-38
1.30755e-39
1.03623e-40
8.11136e-42
6.27184e-43
4.79054e-44
3.61489e-45
2.69503e-46
1.98533e-47
1.44527e-48
1.03983e-49
7.39479e-51
5.19868e-52
3.61341e-53
2.48342e-54
1.68789e-55
1.13459e-56
2.32913e-16
2.38904e-17
2.42442e-18
2.43579e-19
2.42376e-20
2.38906e-21
2.33256e-22
2.25541e-23
2.15915e-24
2.04579e-25
1.91784e-26
1.77822e-27
1.6302e-28
1.47726e-29
1.32287e-30
1.1704e-31
1.0229e-32
8.82982e-34
7.52759e-35
6.33749e-36
5.26895e-37
4.32585e-38
3.50724e-39
2.80814e-40
2.22051e-41
1.73416e-42
1.3377e-43
1.01929e-44