/*--------------------------------*- C++ -*----------------------------------*\
| =========                 |                                                 |
| \\      /  F ield         | OpenFOAM: The Open Source CFD Toolbox           |
|  \\    /   O peration     | Version:  2.3.1                                 |
|   \\  /    A nd           | Web:      www.OpenFOAM.org                      |
|    \\/     M anipulation  |                                                 |
\*---------------------------------------------------------------------------*/
FoamFile
{
    version     2.0;
    format      ascii;
    class       volScalarField;
    location    "15";
    object      Sed_0;
}
// * * * * * * * * * * * * * * * * * * * * * * * * * * * * * * * * * * * * * //

dimensions      [0 0 0 0 0 0 0];

internalField   nonuniform List<scalar> 
38262
(
1.46269e-21
6.95825e-23
3.91736e-24
2.56019e-25
1.84672e-26
1.40659e-27
1.10105e-28
8.72866e-30
6.95199e-31
5.53676e-32
4.39639e-33
3.47343e-34
2.72668e-35
2.12457e-36
1.64185e-37
1.25764e-38
9.54394e-40
7.17293e-41
5.33762e-42
3.93185e-43
2.86676e-44
2.06871e-45
1.47743e-46
1.04422e-47
7.30359e-49
5.05502e-50
3.46207e-51
2.34623e-52
1.57339e-53
1.04415e-54
6.8579e-56
4.45828e-57
2.86909e-58
1.82799e-59
1.1532e-60
7.20385e-62
4.45635e-63
2.73007e-64
2.36817e-20
1.57843e-21
1.12756e-22
8.50358e-24
6.66019e-25
5.34312e-26
4.34594e-27
3.55829e-28
2.91826e-29
2.3891e-30
1.9477e-31
1.57845e-32
1.27003e-33
1.01357e-34
8.01734e-36
6.28197e-37
4.87371e-38
3.7427e-39
2.84426e-40
2.13867e-41
1.59098e-42
1.17087e-43
8.52435e-45
6.1391e-46
4.37344e-47
3.0818e-48
2.14803e-49
1.48094e-50
1.01e-51
6.81441e-53
4.54897e-54
3.00489e-55
1.96438e-56
1.27104e-57
8.14092e-59
5.16176e-60
3.24004e-61
2.01352e-62
1.43214e-19
1.1225e-20
9.04687e-22
7.44636e-23
6.21931e-24
5.2418e-25
4.43778e-26
3.76019e-27
3.17954e-28
2.6771e-29
2.24065e-30
1.8618e-31
1.5343e-32
1.25303e-33
1.01349e-34
8.11459e-36
6.42899e-37
5.03892e-38
3.90633e-39
2.9949e-40
2.27063e-41
1.70233e-42
1.26202e-43
9.25135e-45
6.70589e-46
4.80642e-47
3.40647e-48
2.38737e-49
1.65461e-50
1.13417e-51
7.68972e-53
5.15758e-54
3.42247e-55
2.24724e-56
1.46024e-57
9.39083e-59
5.97742e-60
3.76601e-61
4.22189e-19
3.61605e-20
3.13434e-21
2.73818e-22
2.40243e-23
2.11053e-24
1.85167e-25
1.61894e-26
1.40807e-27
1.21654e-28
1.04292e-29
8.86366e-31
7.46275e-32
6.22085e-33
5.13161e-34
4.18737e-35
3.37903e-36
2.69602e-37
2.12656e-38
1.65813e-39
1.27801e-40
9.73675e-42
7.33265e-43
5.45854e-44
4.01672e-45
2.92189e-46
2.1012e-47
1.49383e-48
1.05001e-49
7.29763e-51
5.01546e-52
3.40901e-53
2.2919e-54
1.52433e-55
1.0031e-56
6.53182e-58
4.20905e-59
2.68426e-60
7.6854e-19
6.91629e-20
6.25585e-21
5.66957e-22
5.1354e-23
4.63914e-24
4.17215e-25
3.72981e-26
3.3104e-27
2.91409e-28
2.5422e-29
2.19642e-30
1.87837e-31
1.5893e-32
1.3299e-33
1.10026e-34
8.99777e-36
7.27243e-37
5.80881e-38
4.58501e-39
3.57633e-40
2.75668e-41
2.09986e-42
1.58074e-43
1.17605e-44
8.64799e-46
6.28572e-47
4.51612e-48
3.20752e-49
2.25213e-50
1.56341e-51
1.07315e-52
7.28491e-54
4.89146e-55
3.24919e-56
2.13548e-57
1.3888e-58
8.93806e-60
9.20478e-20
8.49069e-21
7.83026e-22
7.20296e-23
6.59718e-24
6.00703e-25
5.43087e-26
4.87015e-27
4.32836e-28
3.80998e-29
3.31972e-30
2.86188e-31
2.44004e-32
2.05682e-33
1.71372e-34
1.41106e-35
1.14806e-36
9.22916e-38
7.33046e-39
5.75281e-40
4.46086e-41
3.41787e-42
2.58768e-43
1.93607e-44
1.43162e-45
1.04632e-46
7.55861e-48
5.39738e-49
3.80981e-50
2.65848e-51
1.83412e-52
1.25128e-53
8.44317e-55
5.6358e-56
3.72199e-57
2.43231e-58
1.57296e-59
9.20231e-20
8.48833e-21
7.82817e-22
7.20135e-23
6.59617e-24
6.00661e-25
5.43099e-26
4.87076e-27
4.32938e-28
3.81133e-29
3.32125e-30
2.86346e-31
2.44156e-32
2.05819e-33
1.71491e-34
1.41208e-35
1.14891e-36
9.23607e-38
7.33594e-39
5.75702e-40
4.46399e-41
3.42014e-42
2.5893e-43
1.93722e-44
1.43243e-45
1.04687e-46
7.56248e-48
5.39997e-49
3.81144e-50
2.6594e-51
1.83455e-52
1.25143e-53
8.44308e-55
5.63509e-56
3.7212e-57
2.43168e-58
1.57257e-59
6.90646e-20
6.24581e-21
5.66094e-22
5.12866e-23
4.63439e-24
4.16923e-25
3.72846e-26
3.31036e-27
2.91515e-28
2.54408e-29
2.19884e-30
1.88101e-31
1.59191e-32
1.33231e-33
1.10238e-34
9.0159e-36
7.28759e-37
5.8212e-38
4.59486e-39
3.58392e-40
2.76232e-41
2.10394e-42
1.58365e-43
1.1781e-44
8.66232e-46
6.29569e-47
4.52298e-48
3.21209e-49
2.25499e-50
1.56503e-51
1.07392e-52
7.28744e-54
4.89129e-55
3.24795e-56
2.13409e-57
1.3877e-58
8.93089e-60
5.68427e-61
3.60788e-20
3.12649e-21
2.73151e-22
2.39719e-23
2.10674e-24
1.84918e-25
1.61754e-26
1.40758e-27
1.21679e-28
1.04374e-29
8.87575e-31
7.47677e-32
6.23509e-33
5.14489e-34
4.19911e-35
3.38909e-36
2.70444e-37
2.13344e-38
1.6636e-39
1.28221e-40
9.76797e-42
7.35518e-43
5.4745e-44
4.0279e-45
2.92966e-46
2.10656e-47
1.49749e-48
1.05243e-49
7.31266e-51
5.02384e-52
3.41293e-53
2.29313e-54
1.52418e-55
1.00241e-56
6.52442e-58
4.20324e-59
2.68049e-60
1.69206e-61
1.11926e-20
9.01775e-22
7.4225e-23
6.20089e-24
5.22847e-25
4.42883e-26
3.75478e-27
3.17696e-28
2.67679e-29
2.24209e-30
1.86444e-31
1.53759e-32
1.25648e-33
1.01675e-34
8.14349e-36
6.45362e-37
5.05935e-38
3.92288e-39
3.00794e-40
2.28057e-41
1.70965e-42
1.26724e-43
9.28781e-45
6.73103e-46
4.82361e-47
3.41816e-48
2.3952e-49
1.65969e-50
1.13726e-51
7.70663e-53
5.16525e-54
3.42467e-55
2.2467e-56
1.45872e-57
9.37517e-59
5.9653e-60
3.75814e-61
2.34434e-62
1.57332e-21
1.12325e-22
8.46999e-24
6.63495e-25
5.32494e-26
4.33347e-27
3.55029e-28
2.91371e-29
2.38725e-30
1.9479e-31
1.58009e-32
1.27249e-33
1.01634e-34
8.0444e-36
6.30624e-37
4.89438e-38
3.75973e-39
2.85794e-40
2.14936e-41
1.59907e-42
1.17678e-43
8.56603e-45
6.1678e-46
4.39295e-47
3.09499e-48
2.1569e-49
1.48682e-50
1.01376e-51
6.83708e-53
4.56127e-54
3.01042e-55
1.96594e-56
1.27063e-57
8.12983e-59
5.15046e-60
3.23133e-61
2.00782e-62
1.23568e-63
6.93695e-23
3.90121e-24
2.54851e-25
1.83824e-26
1.40051e-27
1.09681e-28
8.7004e-30
6.93443e-31
5.5273e-32
4.39297e-33
3.47429e-34
2.73021e-35
2.12942e-36
1.647e-37
1.26244e-38
9.58559e-40
7.20734e-41
5.36509e-42
3.95314e-43
2.88274e-44
2.0803e-45
1.48554e-46
1.04974e-47
7.34044e-49
5.07936e-50
3.47801e-51
2.35652e-52
1.57986e-53
1.04801e-54
6.879e-56
4.46816e-57
2.87237e-58
1.8279e-59
1.15179e-60
7.18795e-62
4.44347e-63
2.7213e-64
1.65121e-65
1.00193e-20
5.82996e-22
3.82885e-23
2.75983e-24
2.1121e-25
1.67337e-26
1.35063e-27
1.09979e-28
8.98043e-30
7.32498e-31
5.95234e-32
4.80989e-33
3.85981e-34
3.07291e-35
2.42524e-36
1.89637e-37
1.46844e-38
1.12566e-39
8.5402e-41
6.41154e-42
4.76256e-43
3.50007e-44
2.5448e-45
1.83044e-46
1.30247e-47
9.16806e-49
6.38371e-50
4.39703e-51
2.99611e-52
2.01976e-53
1.3472e-54
8.89217e-56
5.80865e-57
3.75568e-58
2.40377e-59
1.52308e-60
9.55426e-62
5.93397e-63
1.92855e-19
1.38552e-20
1.0464e-21
8.22755e-23
6.65978e-24
5.4939e-25
4.58205e-26
3.84076e-27
3.22168e-28
2.69589e-29
2.24539e-30
1.85836e-31
1.52645e-32
1.2432e-33
1.0032e-34
8.01639e-36
6.34053e-37
4.96241e-38
3.84221e-39
2.94253e-40
2.2288e-41
1.66958e-42
1.23684e-43
9.06109e-45
6.56437e-46
4.70267e-47
3.33146e-48
2.33387e-49
1.61695e-50
1.108e-51
7.51023e-53
5.03604e-54
3.34121e-55
2.19355e-56
1.42517e-57
9.16423e-59
5.83258e-60
3.67441e-61
1.16193e-18
9.49397e-20
7.91332e-21
6.70104e-22
5.73942e-23
4.95079e-24
4.28459e-25
3.70836e-26
3.20154e-27
2.75128e-28
2.34965e-29
1.99166e-30
1.67394e-31
1.39392e-32
1.14929e-33
9.37795e-35
7.57022e-36
6.04388e-37
4.77142e-38
3.72431e-39
2.87393e-40
2.19241e-41
1.65337e-42
1.23258e-43
9.08361e-45
6.61766e-46
4.7661e-47
3.39354e-48
2.38895e-49
1.6629e-50
1.14466e-51
7.79277e-53
5.24764e-54
3.49582e-55
2.30409e-56
1.50265e-57
9.69746e-59
6.19342e-60
3.38327e-18
2.99315e-19
2.66674e-20
2.38711e-21
2.14177e-22
1.92171e-23
1.7207e-24
1.53466e-25
1.36118e-26
1.19905e-27
1.04787e-28
9.07701e-30
7.78803e-31
6.61459e-32
5.55847e-33
4.61972e-34
3.79628e-35
3.08386e-36
2.47607e-37
1.96481e-38
1.54081e-39
1.1941e-40
9.14515e-42
6.92154e-43
5.17713e-44
3.82708e-45
2.79612e-46
2.0192e-47
1.44135e-48
1.0171e-49
7.09591e-51
4.89499e-52
3.33928e-53
2.25308e-54
1.50376e-55
9.92912e-57
6.48655e-58
4.19298e-59
6.14084e-18
5.68978e-19
5.2783e-20
4.89399e-21
4.52791e-22
4.17383e-23
3.82788e-24
3.48834e-25
3.15527e-26
2.83016e-27
2.51538e-28
2.21378e-29
1.92826e-30
1.66148e-31
1.41564e-32
1.19237e-33
9.92588e-35
8.16506e-36
6.63644e-37
5.32934e-38
4.22829e-39
3.31445e-40
2.56695e-41
1.96423e-42
1.48512e-43
1.10957e-44
8.19212e-46
5.97741e-47
4.31056e-48
3.07249e-49
2.16484e-50
1.50795e-51
1.03858e-52
7.07379e-54
4.76532e-55
3.17554e-56
2.09352e-57
1.36555e-58
7.57114e-19
7.15725e-20
6.74914e-21
6.33887e-22
5.92212e-23
5.4972e-24
5.06471e-25
4.62731e-26
4.18926e-27
3.7558e-28
3.33263e-29
2.92543e-30
2.53941e-31
2.1791e-32
1.84803e-33
1.54862e-34
1.28211e-35
1.04862e-36
8.47237e-38
6.76215e-39
5.33169e-40
4.15291e-41
3.19571e-42
2.42962e-43
1.82517e-44
1.35485e-45
9.93873e-47
7.20516e-48
5.16246e-49
3.65601e-50
2.55946e-51
1.77152e-52
1.21249e-53
8.20755e-55
5.49568e-56
3.64046e-57
2.38593e-58
7.57023e-19
7.15618e-20
6.74809e-21
6.33804e-22
5.92163e-23
5.49708e-24
5.06496e-25
4.62792e-26
4.19017e-27
3.75696e-28
3.33395e-29
2.9268e-30
2.54075e-31
2.18033e-32
1.84912e-33
1.54957e-34
1.28292e-35
1.04929e-36
8.47777e-38
6.76639e-39
5.33491e-40
4.1553e-41
3.19745e-42
2.43088e-43
1.82607e-44
1.35549e-45
9.94317e-47
7.20815e-48
5.16436e-49
3.65711e-50
2.56001e-51
1.77173e-52
1.2125e-53
8.20691e-55
5.49487e-56
3.63979e-57
2.38549e-58
5.68371e-19
5.27164e-20
4.88812e-21
4.52328e-22
4.17053e-23
3.82587e-24
3.48747e-25
3.15541e-26
2.83115e-27
2.51704e-28
2.21589e-29
1.93058e-30
1.66381e-31
1.41784e-32
1.19434e-33
9.94308e-35
8.1797e-36
6.64863e-37
5.3392e-38
4.23603e-39
3.32033e-40
2.5713e-41
1.9674e-42
1.4874e-43
1.11119e-44
8.20358e-46
5.98537e-47
4.31591e-48
3.07587e-49
2.16678e-50
1.50891e-51
1.03892e-52
7.07396e-54
4.7641e-55
3.17404e-56
2.09228e-57
1.36473e-58
8.79991e-60
2.98781e-19
2.66131e-20
2.38239e-21
2.138e-22
1.91895e-23
1.71888e-24
1.53366e-25
1.36089e-26
1.19936e-27
1.04865e-28
9.08811e-30
7.80088e-31
6.62779e-32
5.571e-33
4.63103e-34
3.80615e-35
3.09227e-36
2.48305e-37
1.97046e-38
1.54523e-39
1.19745e-40
9.16988e-42
6.93945e-43
5.18994e-44
3.83615e-45
2.80248e-46
2.02358e-47
1.44427e-48
1.01893e-49
7.10628e-51
4.9e-52
3.34101e-53
2.25306e-54
1.50303e-55
9.92065e-57
6.47965e-58
4.18842e-59
2.67923e-60
9.47178e-20
7.89218e-21
6.68323e-22
5.7254e-23
4.94047e-24
4.27758e-25
3.70414e-26
3.19963e-27
2.75128e-28
2.35116e-29
1.99423e-30
1.67711e-31
1.39726e-32
1.1525e-33
9.40696e-35
7.59543e-36
6.06521e-37
4.789e-38
3.73841e-39
2.88489e-40
2.20064e-41
1.65937e-42
1.23687e-43
9.11388e-45
6.6388e-46
4.78071e-47
3.40347e-48
2.39546e-49
1.66692e-50
1.1469e-51
7.80328e-53
5.25098e-54
3.49547e-55
2.3023e-56
1.50069e-57
9.68174e-59
6.183e-60
3.90884e-61
1.38172e-20
1.04299e-21
8.19995e-23
6.63854e-24
5.47833e-25
4.57127e-26
3.83386e-27
3.21788e-28
2.69457e-29
2.246e-30
1.86036e-31
1.52926e-32
1.24631e-33
1.00625e-34
8.04406e-36
6.36446e-37
4.98246e-38
3.85859e-39
2.95556e-40
2.23883e-41
1.67704e-42
1.24221e-43
9.09887e-45
6.59063e-46
4.72081e-47
3.3439e-48
2.34225e-49
1.62239e-50
1.11132e-51
7.52846e-53
5.0444e-54
3.34367e-55
2.19303e-56
1.42355e-57
9.14727e-59
5.81929e-60
3.66565e-61
2.28643e-62
5.8128e-22
3.81453e-23
2.74876e-24
2.10375e-25
1.66727e-26
1.34635e-27
1.09695e-28
8.96328e-30
7.31659e-31
5.95064e-32
4.81296e-33
3.86583e-34
3.08029e-35
2.43277e-36
1.90333e-37
1.47448e-38
1.13069e-39
8.58086e-41
6.44347e-42
4.78685e-43
3.51791e-44
2.55747e-45
1.8392e-46
1.30844e-47
9.20831e-49
6.41066e-50
4.41479e-51
3.00743e-52
2.02658e-53
1.35093e-54
8.90938e-56
5.81399e-57
3.75499e-58
2.40081e-59
1.51989e-60
9.52895e-62
5.91699e-63
3.63923e-64
3.58193e-20
2.45316e-21
1.80782e-22
1.40361e-23
1.12747e-24
9.24551e-26
7.66878e-27
6.39371e-28
5.33474e-29
4.44078e-30
3.67977e-31
3.03028e-32
2.47695e-33
2.0078e-34
1.6128e-35
1.28309e-36
1.01054e-37
7.87664e-39
6.07452e-40
4.63442e-41
3.4974e-42
2.61058e-43
1.92732e-44
1.40731e-45
1.01631e-46
7.25867e-48
5.12718e-49
3.58179e-50
2.47483e-51
1.69142e-52
1.14357e-53
7.64943e-55
5.06294e-56
3.31617e-57
2.1497e-58
1.37931e-59
8.76025e-61
5.50775e-62
7.80983e-19
5.99274e-20
4.76527e-21
3.89932e-22
3.25776e-23
2.75898e-24
2.35444e-25
2.01519e-26
1.72385e-27
1.46987e-28
1.24675e-29
1.05038e-30
8.77952e-32
7.27396e-33
5.96954e-34
4.85004e-35
3.89943e-36
3.10152e-37
2.4399e-38
1.89811e-39
1.4601e-40
1.11053e-41
8.35116e-43
6.20909e-44
4.56419e-45
3.31704e-46
2.38338e-47
1.69321e-48
1.1894e-49
8.26209e-51
5.67597e-52
3.85683e-53
2.59247e-54
1.72402e-55
1.1344e-56
7.38618e-58
4.75926e-59
3.03499e-60
4.69416e-18
3.99089e-19
3.43811e-20
2.99388e-21
2.62723e-22
2.31601e-23
2.04489e-24
1.8036e-25
1.58555e-26
1.38674e-27
1.20486e-28
1.0387e-29
8.87665e-31
7.51421e-32
6.29695e-33
5.22133e-34
4.2823e-35
3.47297e-36
2.78464e-37
2.2071e-38
1.72911e-39
1.3389e-40
1.02469e-41
7.75086e-43
5.79458e-44
4.2817e-45
3.12714e-46
2.25756e-47
1.61109e-48
1.13667e-49
7.92909e-51
5.46939e-52
3.73107e-53
2.51746e-54
1.68026e-55
1.10949e-56
7.24839e-58
4.68564e-59
1.35837e-17
1.23953e-18
1.13407e-19
1.03905e-20
9.51981e-22
8.70807e-23
7.94016e-24
7.20608e-25
6.50045e-26
5.82175e-27
5.17128e-28
4.55216e-29
3.96836e-30
3.42397e-31
2.92258e-32
2.46693e-33
2.05862e-34
1.69797e-35
1.38405e-36
1.1148e-37
8.87247e-39
6.97717e-40
5.42123e-41
4.16203e-42
3.15727e-43
2.36665e-44
1.75306e-45
1.28329e-46
9.28433e-48
6.63918e-49
4.6931e-50
3.27973e-51
2.26622e-52
1.54851e-53
1.04647e-54
6.99516e-56
4.62561e-57
3.02609e-58
2.46537e-17
2.34806e-18
2.23099e-19
2.11308e-20
1.99334e-21
1.87102e-22
1.74571e-23
1.61749e-24
1.48693e-25
1.3551e-26
1.22344e-27
1.09361e-28
9.67339e-30
8.46342e-31
7.32151e-32
6.26056e-33
5.29035e-34
4.41716e-35
3.64366e-36
2.9692e-37
2.3902e-38
1.90072e-39
1.49312e-40
1.15872e-41
8.88344e-43
6.72877e-44
5.0358e-45
3.72398e-46
2.72136e-47
1.96535e-48
1.40285e-49
9.8981e-51
6.9043e-52
4.76187e-53
3.24778e-54
2.19082e-55
1.46181e-56
9.64888e-58
3.12637e-18
3.02408e-19
2.91081e-20
2.7858e-21
2.6489e-22
2.50047e-23
2.34148e-24
2.17349e-25
1.99869e-26
1.81974e-27
1.63956e-28
1.4612e-29
1.28764e-30
1.12161e-31
9.65483e-33
8.21136e-34
6.89913e-35
5.72585e-36
4.69387e-37
3.80067e-38
3.03968e-39
2.40128e-40
1.87379e-41
1.4444e-42
1.09995e-43
8.27582e-45
6.15218e-46
4.51916e-47
3.28043e-48
2.35337e-49
1.66873e-50
1.16971e-51
8.10656e-53
5.55553e-54
3.76539e-55
2.52433e-56
1.67409e-57
3.1264e-18
3.02397e-19
2.91064e-20
2.78565e-21
2.64881e-22
2.50049e-23
2.3416e-24
2.17374e-25
1.99905e-26
1.82019e-27
1.64007e-28
1.46175e-29
1.28818e-30
1.12213e-31
9.6595e-33
8.2155e-34
6.9027e-35
5.72888e-36
4.69637e-37
3.80267e-38
3.04124e-39
2.40246e-40
1.87467e-41
1.44505e-42
1.10043e-43
8.27921e-45
6.15456e-46
4.52078e-47
3.28148e-48
2.35399e-49
1.66905e-50
1.16985e-51
8.10687e-53
5.55534e-54
3.76505e-55
2.52402e-56
1.67387e-57
2.3463e-18
2.22885e-19
2.11112e-20
1.99175e-21
1.86985e-22
1.74497e-23
1.61715e-24
1.48697e-25
1.35547e-26
1.22407e-27
1.09442e-28
9.68264e-30
8.47294e-31
7.3307e-32
6.26904e-33
5.29792e-34
4.42374e-35
3.64924e-36
2.97381e-37
2.39389e-38
1.9036e-39
1.49531e-40
1.16034e-41
8.8954e-43
6.73744e-44
5.04198e-45
3.72831e-46
2.72429e-47
1.96722e-48
1.40396e-49
9.90382e-51
6.90664e-52
4.76231e-53
3.24736e-54
2.19015e-55
1.4612e-56
9.64475e-58
6.29141e-59
1.23785e-18
1.13223e-19
1.0374e-20
9.50619e-22
8.69774e-23
7.9331e-24
7.20204e-25
6.49914e-26
5.8228e-27
5.17427e-28
4.55655e-29
3.97359e-30
3.4295e-31
2.92799e-32
2.47195e-33
2.0631e-34
1.70186e-35
1.38734e-36
1.11752e-37
8.89418e-39
6.99401e-40
5.43397e-41
4.17147e-42
3.16416e-43
2.37162e-44
1.75659e-45
1.28574e-46
9.30079e-48
6.64962e-49
4.69917e-50
3.2828e-51
2.26742e-52
1.54867e-53
1.04618e-54
6.99101e-56
4.62198e-57
3.02359e-58
1.95701e-59
3.98351e-19
3.43061e-20
2.98731e-21
2.62188e-22
2.31193e-23
2.04201e-24
1.8018e-25
1.58468e-26
1.38666e-27
1.20543e-28
1.03974e-29
8.88998e-31
7.52872e-32
6.3113e-33
5.23467e-34
4.2942e-35
3.48327e-36
2.7933e-37
2.21418e-38
1.73473e-39
1.34323e-40
1.02793e-41
7.77455e-43
5.81167e-44
4.29388e-45
3.1357e-46
2.26344e-47
1.615e-48
1.13911e-49
7.94302e-51
5.47624e-52
3.73356e-53
2.5176e-54
1.6794e-55
1.10842e-56
7.23929e-58
4.67938e-59
2.99366e-60
5.97906e-20
4.75217e-21
3.88824e-22
3.24893e-23
2.75229e-24
2.34967e-25
2.01205e-26
1.72207e-27
1.46921e-28
1.24699e-29
1.05128e-30
8.79264e-32
7.28892e-33
5.9846e-34
4.86405e-35
3.91186e-36
3.11219e-37
2.44879e-38
1.90533e-39
1.46577e-40
1.11484e-41
8.38295e-43
6.23201e-44
4.58051e-45
3.32856e-46
2.39143e-47
1.69871e-48
1.19302e-49
8.28448e-51
5.68852e-52
3.86279e-53
2.59442e-54
1.72387e-55
1.13342e-56
7.37518e-58
4.7503e-59
3.02891e-60
1.91205e-61
2.44644e-21
1.80179e-22
1.39868e-23
1.1236e-24
9.21636e-26
7.64781e-27
6.37951e-28
5.32601e-29
4.43647e-30
3.67893e-31
3.032e-32
2.48029e-33
2.01194e-34
1.61709e-35
1.28712e-36
1.01411e-37
7.90702e-39
6.09958e-40
4.65449e-41
3.51297e-42
2.62225e-43
1.93579e-44
1.4133e-45
1.02049e-46
7.28758e-48
5.14699e-49
3.59511e-50
2.48347e-51
1.6967e-52
1.1465e-53
7.66319e-55
5.06738e-56
3.31578e-57
2.14742e-58
1.37679e-59
8.73983e-61
5.49384e-62
3.41998e-63
9.30923e-20
7.02933e-21
5.55449e-22
4.53145e-23
3.77556e-24
3.18644e-25
2.70746e-26
2.30568e-27
1.96139e-28
1.66256e-29
1.40159e-30
1.17349e-31
9.74736e-33
8.02556e-34
6.54579e-35
5.28591e-36
4.22451e-37
3.34042e-38
2.61278e-39
2.02122e-40
1.5463e-41
1.16981e-42
8.75132e-44
6.47376e-45
4.7354e-46
3.42504e-47
2.44956e-48
1.73235e-49
1.21155e-50
8.37983e-52
5.73278e-53
3.87953e-54
2.59736e-55
1.72058e-56
1.12786e-57
7.31662e-59
4.69754e-60
2.98518e-61
2.04792e-18
1.66226e-19
1.38351e-20
1.17442e-21
1.01099e-22
8.77978e-24
7.65792e-25
6.68455e-26
5.82291e-27
5.05074e-28
4.35481e-29
3.72739e-30
3.16382e-31
2.66094e-32
2.21613e-33
1.82672e-34
1.48969e-35
1.20155e-36
9.58335e-38
7.55716e-39
5.89148e-40
4.54036e-41
3.45896e-42
2.60486e-43
1.9391e-44
1.4269e-45
1.03794e-46
7.46379e-48
5.30622e-49
3.72983e-50
2.59248e-51
1.78203e-52
1.21155e-53
8.14787e-55
5.42093e-56
3.56837e-57
2.32418e-58
1.49798e-59
1.23836e-17
1.09314e-18
9.72452e-20
8.7046e-21
7.82383e-22
7.04512e-23
6.34125e-24
5.69342e-25
5.08966e-26
4.5232e-27
3.99103e-28
3.49261e-29
3.02877e-30
2.60096e-31
2.21059e-32
1.85865e-33
1.54542e-34
1.27042e-35
1.03232e-36
8.29078e-38
6.58037e-39
5.1613e-40
4.00049e-41
3.06415e-42
2.31928e-43
1.73482e-44
1.28241e-45
9.36915e-47
6.76557e-48
4.82924e-49
3.40777e-50
2.37753e-51
1.64022e-52
1.11904e-53
7.55117e-55
5.04025e-56
3.32815e-57
2.17424e-58
3.59879e-17
3.38451e-18
3.17896e-19
2.98078e-20
2.78799e-21
2.59858e-22
2.41091e-23
2.224e-24
2.03766e-25
1.85245e-26
1.66959e-27
1.49074e-28
1.3178e-29
1.15273e-30
9.97343e-32
8.53189e-33
7.21456e-34
6.02905e-35
4.97848e-36
4.06173e-37
3.27388e-38
2.60701e-39
2.0509e-40
1.59394e-41
1.22388e-42
9.2846e-44
6.95932e-45
5.15441e-46
3.77255e-47
2.72881e-48
1.95092e-49
1.37875e-50
9.63301e-52
6.65468e-53
4.54606e-54
3.07142e-55
2.05252e-56
1.35682e-57
6.56645e-17
6.42498e-18
6.25092e-19
6.04659e-20
5.81355e-21
5.55299e-22
5.26627e-23
4.95541e-24
4.6234e-25
4.27435e-26
3.91337e-27
3.54631e-28
3.17941e-29
2.81894e-30
2.47086e-31
2.14048e-32
1.83225e-33
1.54951e-34
1.29447e-35
1.06818e-36
8.70642e-38
7.00922e-39
5.57364e-40
4.3778e-41
3.39658e-42
2.60327e-43
1.97114e-44
1.47458e-45
1.08995e-46
7.961e-48
5.74646e-49
4.09971e-50
2.89123e-51
2.0158e-52
1.38966e-53
9.47376e-55
6.38764e-56
4.25998e-57
8.57723e-18
8.48684e-19
8.33599e-20
8.12584e-21
7.85843e-22
7.53665e-23
7.16452e-24
6.7475e-25
6.29261e-26
5.80828e-27
5.30406e-28
4.79013e-29
4.27677e-30
3.7739e-31
3.29055e-32
2.83446e-33
2.41178e-34
2.02688e-35
1.68236e-36
1.37911e-37
1.11652e-38
8.92756e-40
7.05034e-41
5.49948e-42
4.23737e-43
3.22526e-44
2.42526e-45
1.80182e-46
1.3227e-47
9.59523e-49
6.87923e-50
4.87501e-51
3.41525e-52
2.36563e-53
1.62034e-54
1.09764e-55
7.35448e-57
8.57806e-18
8.48719e-19
8.33605e-20
8.12582e-21
7.85849e-22
7.5369e-23
7.16501e-24
6.74826e-25
6.29363e-26
5.80954e-27
5.30549e-28
4.79165e-29
4.2783e-30
3.77537e-31
3.29191e-32
2.83569e-33
2.41285e-34
2.0278e-35
1.68313e-36
1.37973e-37
1.11702e-38
8.93141e-40
7.05327e-41
5.50167e-42
4.23898e-43
3.22643e-44
2.42609e-45
1.80239e-46
1.32307e-47
9.59743e-49
6.88041e-50
4.87553e-51
3.4154e-52
2.3656e-53
1.62025e-54
1.09755e-55
7.35382e-57
6.4215e-18
6.24625e-19
6.04216e-20
5.80989e-21
5.55028e-22
5.26456e-23
4.95468e-24
4.62361e-25
4.2754e-26
3.91513e-27
3.54859e-28
3.18201e-29
2.82166e-30
2.47353e-31
2.14299e-32
1.83452e-33
1.55151e-34
1.29619e-35
1.06963e-36
8.71818e-38
7.01854e-39
5.58084e-40
4.38327e-41
3.40066e-42
2.60627e-43
1.97331e-44
1.4761e-45
1.09098e-46
7.96766e-48
5.75042e-49
4.1018e-50
2.89213e-51
2.01602e-52
1.38956e-53
9.47167e-55
6.38567e-56
4.25863e-57
2.80617e-58
3.38088e-18
3.17474e-19
2.97684e-20
2.78469e-21
2.59603e-22
2.40915e-23
2.223e-24
2.03736e-25
1.85278e-26
1.67045e-27
1.492e-28
1.31931e-29
1.15435e-30
9.98953e-32
8.54709e-33
7.22838e-34
6.04125e-35
4.98896e-36
4.07048e-37
3.28098e-38
2.61261e-39
2.0552e-40
1.59719e-41
1.22629e-42
9.30219e-44
6.97193e-45
5.16323e-46
3.77849e-47
2.73259e-48
1.95314e-49
1.37989e-50
9.63761e-52
6.65549e-53
4.54514e-54
3.07001e-55
2.05125e-56
1.35594e-57
8.86669e-59
1.09147e-18
9.70658e-20
8.68839e-21
7.81034e-22
7.03464e-23
6.33374e-24
5.68869e-25
5.08744e-26
4.52318e-27
3.99282e-28
3.49576e-29
3.03279e-30
2.60539e-31
2.21504e-32
1.86285e-33
1.54923e-34
1.27377e-35
1.03518e-36
8.3145e-38
6.59946e-39
5.17623e-40
4.01185e-41
3.07262e-42
2.32549e-43
1.7393e-44
1.2856e-45
9.39122e-47
6.78026e-48
4.83847e-49
3.41307e-50
2.38017e-51
1.6412e-52
1.11912e-53
7.54805e-55
5.03621e-56
3.32467e-57
2.17182e-58
1.40394e-59
1.65895e-19
1.38018e-20
1.17152e-21
1.00863e-22
8.76158e-24
7.64477e-25
6.67587e-26
5.81808e-27
5.04917e-28
4.35591e-29
3.73048e-30
3.16819e-31
2.66592e-32
2.22119e-33
1.83151e-34
1.494e-35
1.2053e-36
9.61512e-38
7.58327e-39
5.91227e-40
4.5564e-41
3.47098e-42
2.61367e-43
1.94547e-44
1.43146e-45
1.04116e-46
7.48596e-48
5.32085e-49
3.73887e-50
2.59754e-51
1.78442e-52
1.21231e-53
8.14692e-55
5.41659e-56
3.56359e-57
2.3203e-58
1.49535e-59
9.53933e-61
7.01145e-21
5.5377e-22
4.51724e-23
3.76411e-24
3.17765e-25
2.70107e-26
2.30132e-27
1.95874e-28
1.66132e-29
1.40149e-30
1.17424e-31
9.76021e-33
8.0411e-34
6.56186e-35
5.30114e-36
4.23817e-37
3.35222e-38
2.62265e-39
2.02924e-40
1.5526e-41
1.1746e-42
8.78662e-44
6.49917e-45
4.75344e-46
3.43773e-47
2.45838e-48
1.73834e-49
1.21545e-50
8.40365e-52
5.74592e-53
3.88561e-54
2.59919e-55
1.72022e-56
1.12666e-57
7.30388e-59
4.68735e-60
2.97829e-61
1.87372e-62
1.88762e-19
1.52256e-20
1.26456e-21
1.07178e-22
9.20391e-24
7.96368e-25
6.91261e-26
5.99924e-27
5.19218e-28
4.47228e-29
3.82787e-30
3.25169e-31
2.73899e-32
2.28601e-33
1.88933e-34
1.54551e-35
1.25087e-36
1.00142e-37
7.92855e-39
6.20712e-40
4.80471e-41
3.6771e-42
2.78226e-43
2.08133e-44
1.53931e-45
1.12552e-46
8.13626e-48
5.8152e-49
4.10962e-50
2.87192e-51
1.98482e-52
1.35674e-53
9.17381e-55
6.13673e-56
4.06164e-57
2.66001e-58
1.72392e-59
1.10569e-60
4.10639e-18
3.49309e-19
3.02282e-20
2.64988e-21
2.34317e-22
2.08193e-23
1.85254e-24
1.6463e-25
1.45785e-26
1.2841e-27
1.1234e-28
9.75054e-30
8.38846e-31
7.14797e-32
6.02948e-33
5.03239e-34
4.15441e-35
3.39134e-36
2.73701e-37
2.18356e-38
1.72188e-39
1.34205e-40
1.03384e-41
7.87134e-43
5.92323e-44
4.40539e-45
3.23846e-46
2.35313e-47
1.6902e-48
1.2002e-49
8.42633e-51
5.84982e-52
4.01622e-53
2.72719e-54
1.83183e-55
1.21721e-56
8.00201e-58
5.20499e-59
2.50735e-17
2.28892e-18
2.09665e-19
1.92514e-20
1.76939e-21
1.62515e-22
1.48913e-23
1.35906e-24
1.2336e-25
1.11219e-26
9.94906e-28
8.82246e-29
7.74951e-30
6.73856e-31
5.7976e-32
4.93336e-33
4.1506e-34
3.45185e-35
2.83718e-36
2.30444e-37
1.8495e-38
1.46667e-39
1.14919e-40
8.89688e-42
6.80567e-43
5.14405e-44
3.84203e-45
2.83572e-46
2.06847e-47
1.49127e-48
1.06275e-49
7.48722e-51
5.21529e-52
3.59218e-53
2.44686e-54
1.64846e-55
1.09854e-56
7.24194e-58
7.35915e-17
7.11422e-18
6.84687e-19
6.56039e-20
6.25613e-21
5.93439e-22
5.59529e-23
5.23953e-24
4.86888e-25
4.48638e-26
4.09623e-27
3.7036e-28
3.3142e-29
2.9339e-30
2.56835e-31
2.22262e-32
1.90095e-33
1.60652e-34
1.34137e-35
1.10642e-36
9.01523e-38
7.25611e-39
5.76899e-40
4.53076e-41
3.51503e-42
2.69397e-43
2.03981e-44
1.52597e-45
1.12798e-46
8.23934e-48
5.94797e-49
4.24404e-50
2.99349e-51
2.08746e-52
1.4393e-53
9.81378e-55
6.61787e-56
4.41408e-57
1.35412e-16
1.35819e-17
1.35082e-18
1.3327e-19
1.3044e-20
1.26643e-21
1.21932e-22
1.16372e-23
1.10045e-24
1.03055e-25
9.55324e-27
8.76242e-28
7.94911e-29
7.12991e-30
6.32107e-31
5.53771e-32
4.79311e-33
4.09816e-34
3.46096e-35
2.88677e-36
2.37805e-37
1.93471e-38
1.55454e-39
1.23364e-40
9.66936e-42
7.48603e-43
5.72504e-44
4.32526e-45
3.22841e-46
2.38095e-47
1.73516e-48
1.24972e-49
8.89652e-51
6.26067e-52
4.35584e-53
2.9966e-54
2.03866e-55
1.37171e-56
1.82029e-17
1.8395e-18
1.84135e-19
1.82604e-20
1.79403e-21
1.74598e-22
1.68283e-23
1.60581e-24
1.51654e-25
1.41698e-26
1.30942e-27
1.19634e-28
1.08038e-29
9.64104e-31
8.49991e-32
7.40241e-33
6.3672e-34
5.4088e-35
4.53741e-36
3.7589e-37
3.07509e-38
2.48431e-39
1.98209e-40
1.56181e-41
1.21548e-42
9.34367e-44
7.09524e-45
5.32273e-46
3.94511e-47
2.88927e-48
2.09109e-49
1.49578e-50
1.05764e-51
7.39327e-53
5.11007e-54
3.49273e-55
2.36099e-56
1.82058e-17
1.83968e-18
1.84145e-19
1.82611e-20
1.7941e-21
1.74608e-22
1.68296e-23
1.60599e-24
1.51677e-25
1.41726e-26
1.30973e-27
1.19668e-28
1.08071e-29
9.64433e-31
8.50299e-32
7.40522e-33
6.36969e-34
5.41097e-35
4.53925e-36
3.76042e-37
3.07631e-38
2.48527e-39
1.98282e-40
1.56237e-41
1.2159e-42
9.34672e-44
7.09741e-45
5.32421e-46
3.94608e-47
2.88985e-48
2.0914e-49
1.49593e-50
1.05768e-51
7.39325e-53
5.10987e-54
3.49252e-55
2.36084e-56
1.35765e-17
1.35001e-18
1.33191e-19
1.30374e-20
1.26594e-21
1.21902e-22
1.16361e-23
1.10052e-24
1.0308e-25
9.55723e-27
8.76753e-28
7.95495e-29
7.13606e-30
6.32717e-31
5.54351e-32
4.79844e-33
4.10292e-34
3.4651e-35
2.89028e-36
2.38094e-37
1.93703e-38
1.55636e-39
1.23504e-40
9.67993e-42
7.49387e-43
5.73074e-44
4.32928e-45
3.23115e-46
2.38271e-47
1.73622e-48
1.25028e-49
8.89894e-51
6.26129e-52
4.3556e-53
2.99608e-54
2.03816e-55
1.37138e-56
9.11557e-58
7.10798e-18
6.83917e-19
6.55303e-20
6.24987e-21
5.92952e-22
5.59192e-23
5.23766e-24
4.86846e-25
4.48728e-26
4.09826e-27
3.7065e-28
3.31767e-29
2.93764e-30
2.57211e-31
2.22622e-32
1.90426e-33
1.60948e-34
1.34394e-35
1.1086e-36
9.03306e-38
7.27035e-39
5.7801e-40
4.53924e-41
3.52139e-42
2.69866e-43
2.04319e-44
1.52834e-45
1.12957e-46
8.2495e-48
5.95392e-49
4.24709e-50
2.99472e-51
2.08767e-52
1.43905e-53
9.80993e-55
6.6144e-56
4.41169e-57
2.91046e-58
2.28592e-18
2.09328e-19
1.92202e-20
1.76675e-21
1.62307e-22
1.48764e-23
1.35813e-24
1.23319e-25
1.11225e-26
9.95368e-28
8.83011e-29
7.75914e-30
6.74917e-31
5.80834e-32
4.94363e-33
4.16004e-34
3.46024e-35
2.84443e-36
2.31052e-37
1.85445e-38
1.47058e-39
1.15221e-40
8.91966e-42
6.82257e-43
5.15638e-44
3.85084e-45
2.84184e-46
2.07254e-47
1.49382e-48
1.0642e-49
7.49438e-51
5.21788e-52
3.59228e-53
2.44589e-54
1.64726e-55
1.09751e-56
7.23486e-58
4.71894e-59
3.48676e-19
3.01625e-20
2.64403e-21
2.33834e-22
2.07818e-23
1.84983e-24
1.64453e-25
1.45692e-26
1.28389e-27
1.1238e-28
9.75901e-30
8.39991e-31
7.16089e-32
6.04263e-33
5.04489e-34
4.16579e-35
3.40136e-36
2.74558e-37
2.19068e-38
1.72761e-39
1.34651e-40
1.03722e-41
7.89643e-43
5.94158e-44
4.41863e-45
3.24785e-46
2.35959e-47
1.69444e-48
1.2028e-49
8.44067e-51
5.85635e-52
4.01804e-53
2.72658e-54
1.8303e-55
1.21563e-56
7.98945e-58
5.19661e-59
3.34531e-60
1.5187e-20
1.26086e-21
1.06861e-22
9.1785e-24
7.94439e-25
6.89881e-26
5.99016e-27
5.1871e-28
4.47058e-29
3.82892e-30
3.25476e-31
2.74322e-32
2.29067e-33
1.89394e-34
1.54985e-35
1.25478e-36
1.00482e-37
7.95724e-39
6.23062e-40
4.82335e-41
3.69141e-42
2.79292e-43
2.08909e-44
1.54489e-45
1.12948e-46
8.16403e-48
5.83408e-49
4.12187e-50
2.87932e-51
1.98882e-52
1.3585e-53
9.17812e-55
6.13434e-56
4.0569e-57
2.65531e-58
1.72026e-59
1.10327e-60
7.00493e-62
3.14534e-19
2.66523e-20
2.30172e-21
2.01309e-22
1.77413e-23
1.56914e-24
1.38832e-25
1.2256e-26
1.07731e-27
9.41382e-29
8.16702e-30
7.02735e-31
5.99246e-32
5.0609e-33
4.23093e-34
3.4998e-35
2.8637e-36
2.31725e-37
1.85397e-38
1.46644e-39
1.14663e-40
8.86284e-42
6.77181e-43
5.11469e-44
3.81867e-45
2.8183e-46
2.05614e-47
1.48298e-48
1.05746e-49
7.45552e-51
5.1978e-52
3.58376e-53
2.44392e-54
1.64861e-55
1.10022e-56
7.26453e-58
4.74619e-59
3.06842e-60
6.77548e-18
5.99579e-19
5.36464e-20
4.83676e-21
4.38019e-22
3.97276e-23
3.59961e-24
3.25125e-25
2.92213e-26
2.60956e-27
2.31279e-28
2.03229e-29
1.76922e-30
1.52494e-31
1.3007e-32
1.09742e-33
9.15593e-35
7.55204e-36
6.15723e-37
4.96151e-38
3.95109e-39
3.10943e-40
2.41824e-41
1.85853e-42
1.41155e-43
1.05946e-44
7.85872e-46
5.76136e-47
4.17481e-48
2.99039e-49
2.11759e-50
1.48261e-51
1.02645e-52
7.02794e-54
4.75927e-55
3.18802e-56
2.11257e-57
1.38498e-58
4.18882e-17
3.93933e-18
3.70438e-19
3.48089e-20
3.26529e-21
3.05418e-22
2.84484e-23
2.63553e-24
2.42561e-25
2.21547e-26
2.00638e-27
1.80022e-28
1.59927e-29
1.40596e-30
1.2226e-31
1.05124e-32
8.93509e-34
7.50562e-35
6.23011e-36
5.10952e-37
4.1401e-38
3.31415e-39
2.62096e-40
2.04776e-41
1.58064e-42
1.20543e-43
9.08287e-45
6.76253e-46
4.97547e-47
3.61776e-48
2.59999e-49
1.84704e-50
1.29721e-51
9.00785e-53
6.18532e-54
4.20031e-55
2.82115e-56
1.87427e-57
1.24615e-16
1.23485e-17
1.21505e-18
1.18756e-19
1.15291e-20
1.11151e-21
1.06369e-22
1.00987e-23
9.506e-25
8.86655e-26
8.19011e-27
7.48822e-28
6.77364e-29
6.05963e-30
5.35925e-31
4.68461e-32
4.04628e-33
3.45286e-34
2.91064e-35
2.42353e-36
1.99314e-37
1.619e-38
1.29889e-39
1.02927e-40
8.05606e-42
6.22846e-43
4.75693e-44
3.58916e-45
2.67558e-46
1.9708e-47
1.43454e-48
1.032e-49
7.33833e-51
5.15843e-52
3.58505e-53
2.46366e-54
1.67428e-55
1.12532e-56
2.31705e-16
2.37655e-17
2.41166e-18
2.42288e-19
2.41082e-20
2.37621e-21
2.31991e-22
2.24308e-23
2.14724e-24
2.03439e-25
1.90704e-26
1.76809e-27
1.62081e-28
1.46864e-29
1.31506e-30
1.1634e-31
1.01669e-32
8.77555e-34
7.48068e-35
6.29745e-36
5.23518e-37
4.29773e-38
3.48411e-39
2.78936e-40
2.20544e-41
1.72222e-42
1.32836e-43
1.01207e-44
7.61744e-46