/*--------------------------------*- C++ -*----------------------------------*\
| =========                 |                                                 |
| \\      /  F ield         | OpenFOAM: The Open Source CFD Toolbox           |
|  \\    /   O peration     | Version:  2.3.1                                 |
|   \\  /    A nd           | Web:      www.OpenFOAM.org                      |
|    \\/     M anipulation  |                                                 |
\*---------------------------------------------------------------------------*/
FoamFile
{
    version     2.0;
    format      ascii;
    class       volVectorField;
    location    "15";
    object      U;
}
// * * * * * * * * * * * * * * * * * * * * * * * * * * * * * * * * * * * * * //

dimensions      [0 1 -1 0 0 0 0];

internalField   nonuniform List<vector> 
38262
(
(0.00503929 3.67691e-05 3.18523e-05)
(0.00484359 3.29186e-05 2.80339e-05)
(0.00467002 2.96148e-05 2.4776e-05)
(0.00451544 2.6739e-05 2.19762e-05)
(0.00437728 2.42086e-05 1.9558e-05)
(0.0042534 2.19743e-05 1.74662e-05)
(0.00414198 1.99966e-05 1.56541e-05)
(0.00404148 1.82386e-05 1.40777e-05)
(0.00395057 1.66694e-05 1.26969e-05)
(0.00386815 1.52629e-05 1.14799e-05)
(0.0037933 1.39909e-05 1.04026e-05)
(0.00372524 1.28266e-05 9.44282e-06)
(0.0036633 1.17564e-05 8.57791e-06)
(0.00360693 1.07831e-05 7.78967e-06)
(0.0035556 9.91183e-06 7.06879e-06)
(0.00350881 9.13588e-06 6.41098e-06)
(0.00346613 8.43537e-06 5.8104e-06)
(0.00342718 7.79082e-06 5.26005e-06)
(0.00339164 7.19161e-06 4.75601e-06)
(0.00335925 6.62606e-06 4.29483e-06)
(0.00332977 6.07739e-06 3.86771e-06)
(0.00330305 5.54034e-06 3.46454e-06)
(0.00327894 5.027e-06 3.0838e-06)
(0.00325727 4.54962e-06 2.733e-06)
(0.00323786 4.11377e-06 2.41921e-06)
(0.00322049 3.72784e-06 2.14227e-06)
(0.00320493 3.40228e-06 1.89588e-06)
(0.00319098 3.13613e-06 1.67222e-06)
(0.00317847 2.90944e-06 1.4649e-06)
(0.00316728 2.69187e-06 1.26876e-06)
(0.00315736 2.46015e-06 1.07913e-06)
(0.00314867 2.20265e-06 8.93639e-07)
(0.00314123 1.91241e-06 7.13893e-07)
(0.00313506 1.58942e-06 5.45943e-07)
(0.00313015 1.24761e-06 3.98075e-07)
(0.00312645 9.06017e-07 2.7399e-07)
(0.00312386 5.87321e-07 1.75578e-07)
(0.00312226 3.04602e-07 9.59865e-08)
(0.00537146 6.24256e-05 4.5745e-05)
(0.00516893 5.56904e-05 4.05599e-05)
(0.00498919 4.99565e-05 3.61113e-05)
(0.00482905 4.50148e-05 3.2256e-05)
(0.00468589 4.07045e-05 2.8898e-05)
(0.00455752 3.69132e-05 2.59714e-05)
(0.00444206 3.35569e-05 2.34165e-05)
(0.00433791 3.05705e-05 2.11761e-05)
(0.00424374 2.79007e-05 1.92027e-05)
(0.00415839 2.54939e-05 1.74597e-05)
(0.0040809 2.32962e-05 1.59106e-05)
(0.00401048 2.12715e-05 1.45161e-05)
(0.00394645 1.94175e-05 1.32449e-05)
(0.00388822 1.77545e-05 1.20826e-05)
(0.00383521 1.6298e-05 1.1024e-05)
(0.0037869 1.50352e-05 1.00597e-05)
(0.00374282 1.3925e-05 9.17285e-06)
(0.00370261 1.29241e-05 8.35056e-06)
(0.00366593 1.20052e-05 7.58971e-06)
(0.00363249 1.11444e-05 6.883e-06)
(0.00360208 1.03138e-05 6.21309e-06)
(0.00357452 9.50195e-06 5.57235e-06)
(0.00354962 8.71861e-06 4.97215e-06)
(0.00352722 7.97275e-06 4.42522e-06)
(0.00350711 7.27069e-06 3.93517e-06)
(0.00348909 6.6308e-06 3.50344e-06)
(0.00347295 6.07761e-06 3.12963e-06)
(0.00345849 5.61872e-06 2.80409e-06)
(0.00344554 5.23384e-06 2.50619e-06)
(0.00343399 4.88683e-06 2.21243e-06)
(0.00342376 4.54334e-06 1.91083e-06)
(0.00341482 4.16981e-06 1.60387e-06)
(0.00340717 3.72923e-06 1.29816e-06)
(0.0034008 3.19999e-06 1.00294e-06)
(0.00339572 2.59537e-06 7.32722e-07)
(0.00339187 1.95306e-06 4.987e-07)
(0.00338918 1.32482e-06 3.06393e-07)
(0.00338751 7.43286e-07 1.57034e-07)
(0.0054318 5.7337e-05 5.17529e-05)
(0.0052288 5.09376e-05 4.59491e-05)
(0.00504854 4.55124e-05 4.09837e-05)
(0.00488786 4.08617e-05 3.66931e-05)
(0.00474416 3.68239e-05 3.29615e-05)
(0.00461526 3.32781e-05 2.97016e-05)
(0.0044993 3.01362e-05 2.6841e-05)
(0.00439473 2.73333e-05 2.43237e-05)
(0.00430018 2.48095e-05 2.21078e-05)
(0.00421449 2.2503e-05 2.01495e-05)
(0.00413673 2.03681e-05 1.83946e-05)
(0.00406611 1.83977e-05 1.67945e-05)
(0.00400197 1.66182e-05 1.53257e-05)
(0.00394368 1.50614e-05 1.39879e-05)
(0.00389065 1.37416e-05 1.27843e-05)
(0.00384233 1.26431e-05 1.17021e-05)
(0.00379823 1.17237e-05 1.0711e-05)
(0.00375798 1.09375e-05 9.78634e-06)
(0.00372127 1.02508e-05 8.92304e-06)
(0.00368781 9.6319e-06 8.11544e-06)
(0.00365737 9.04992e-06 7.34656e-06)
(0.00362977 8.48842e-06 6.61156e-06)
(0.00360482 7.94084e-06 5.92351e-06)
(0.00358233 7.39433e-06 5.29115e-06)
(0.00356213 6.83911e-06 4.71594e-06)
(0.00354402 6.28927e-06 4.20448e-06)
(0.00352781 5.77908e-06 3.76245e-06)
(0.00351332 5.34089e-06 3.37993e-06)
(0.00350037 4.98934e-06 3.02952e-06)
(0.00348883 4.71887e-06 2.68432e-06)
(0.00347862 4.50285e-06 2.33784e-06)
(0.00346968 4.2859e-06 1.9936e-06)
(0.00346199 3.99412e-06 1.64718e-06)
(0.00345555 3.57327e-06 1.29874e-06)
(0.00345038 3.01592e-06 9.64783e-07)
(0.00344647 2.35554e-06 6.65526e-07)
(0.00344373 1.65094e-06 4.20251e-07)
(0.00344203 9.53251e-07 2.41715e-07)
(0.00544675 4.31312e-05 5.29432e-05)
(0.00524413 3.81839e-05 4.70079e-05)
(0.00506413 3.39462e-05 4.195e-05)
(0.0049036 3.02692e-05 3.75942e-05)
(0.00475998 2.70446e-05 3.38119e-05)
(0.00463113 2.42009e-05 3.05045e-05)
(0.00451522 2.16808e-05 2.75975e-05)
(0.00441066 1.9424e-05 2.50405e-05)
(0.00431611 1.73657e-05 2.27895e-05)
(0.00423043 1.54547e-05 2.07865e-05)
(0.00415271 1.36784e-05 1.89675e-05)
(0.00408218 1.20646e-05 1.72931e-05)
(0.00401818 1.06513e-05 1.5758e-05)
(0.00396006 9.45935e-06 1.43719e-05)
(0.0039072 8.48646e-06 1.31386e-05)
(0.00385902 7.71378e-06 1.20407e-05)
(0.00381505 7.11471e-06 1.1041e-05)
(0.00377491 6.66247e-06 1.01114e-05)
(0.00373829 6.326e-06 9.24696e-06)
(0.00370489 6.06386e-06 8.43834e-06)
(0.00367449 5.83926e-06 7.66515e-06)
(0.00364692 5.63584e-06 6.92703e-06)
(0.00362197 5.43987e-06 6.24021e-06)
(0.00359945 5.22037e-06 5.60458e-06)
(0.00357919 4.94641e-06 5.00994e-06)
(0.00356104 4.61952e-06 4.46131e-06)
(0.00354484 4.27996e-06 3.97315e-06)
(0.00353039 3.9847e-06 3.54595e-06)
(0.00351752 3.78095e-06 3.15972e-06)
(0.00350607 3.68602e-06 2.79698e-06)
(0.00349591 3.67143e-06 2.45746e-06)
(0.00348697 3.66373e-06 2.13549e-06)
(0.0034792 3.57265e-06 1.80788e-06)
(0.00347265 3.32995e-06 1.46245e-06)
(0.00346736 2.91015e-06 1.11376e-06)
(0.00346335 2.33039e-06 7.8781e-07)
(0.00346055 1.6373e-06 5.12313e-07)
(0.00345883 8.95219e-07 3.069e-07)
(0.00545022 2.61018e-05 5.26668e-05)
(0.00524795 2.29714e-05 4.6756e-05)
(0.0050682 2.01898e-05 4.17263e-05)
(0.00490786 1.76853e-05 3.73919e-05)
(0.0047644 1.54279e-05 3.36272e-05)
(0.00463569 1.34109e-05 3.03418e-05)
(0.00451989 1.16144e-05 2.74651e-05)
(0.00441541 9.98996e-06 2.49396e-05)
(0.00432091 8.48433e-06 2.27052e-05)
(0.00423529 7.0765e-06 2.06928e-05)
(0.00415766 5.78994e-06 1.88466e-05)
(0.00408728 4.66866e-06 1.71476e-05)
(0.00402346 3.74215e-06 1.56026e-05)
(0.00396551 3.01101e-06 1.42177e-05)
(0.00391282 2.45715e-06 1.29882e-05)
(0.00386479 2.06166e-06 1.18947e-05)
(0.00382096 1.81416e-06 1.09058e-05)
(0.00378094 1.70569e-06 1.00016e-05)
(0.00374441 1.7117e-06 9.17498e-06)
(0.00371106 1.7925e-06 8.40241e-06)
(0.0036807 1.91481e-06 7.65681e-06)
(0.00365315 2.06145e-06 6.94719e-06)
(0.0036282 2.21135e-06 6.29617e-06)
(0.00360562 2.32594e-06 5.6913e-06)
(0.00358528 2.37021e-06 5.10314e-06)
(0.00356707 2.34073e-06 4.53016e-06)
(0.00355086 2.27244e-06 3.99671e-06)
(0.00353647 2.22434e-06 3.52237e-06)
(0.0035237 2.25267e-06 3.10775e-06)
(0.00351234 2.3801e-06 2.74809e-06)
(0.00350223 2.5743e-06 2.44123e-06)
(0.00349325 2.75815e-06 2.16381e-06)
(0.00348538 2.84532e-06 1.87434e-06)
(0.00347868 2.77091e-06 1.55351e-06)
(0.00347323 2.50134e-06 1.21279e-06)
(0.00346908 2.03774e-06 8.75608e-07)
(0.00346617 1.41385e-06 5.71618e-07)
(0.00346442 6.96077e-07 3.21903e-07)
(0.00524836 8.51257e-06 4.64691e-05)
(0.00506867 7.16335e-06 4.14565e-05)
(0.00490839 5.80955e-06 3.71184e-05)
(0.00476503 4.49492e-06 3.33442e-05)
(0.00463644 3.26668e-06 3.0062e-05)
(0.00452074 2.14302e-06 2.72045e-05)
(0.00441633 1.10562e-06 2.46968e-05)
(0.00432188 1.3444e-07 2.24607e-05)
(0.00423635 -7.57558e-07 2.04278e-05)
(0.00415885 -1.52921e-06 1.85609e-05)
(0.00408863 -2.14198e-06 1.68572e-05)
(0.00402496 -2.58141e-06 1.53228e-05)
(0.00396717 -2.85892e-06 1.39524e-05)
(0.00391459 -3.0015e-06 1.27324e-05)
(0.00386668 -3.03373e-06 1.16437e-05)
(0.00382297 -2.96567e-06 1.06657e-05)
(0.00378306 -2.79899e-06 9.78898e-06)
(0.0037466 -2.54192e-06 9.00128e-06)
(0.00371331 -2.21157e-06 8.26382e-06)
(0.00368298 -1.82785e-06 7.54673e-06)
(0.00365544 -1.41421e-06 6.86959e-06)
(0.00363047 -1.00084e-06 6.25648e-06)
(0.00360784 -6.17092e-07 5.6824e-06)
(0.00358744 -2.78753e-07 5.1052e-06)
(0.00356917 1.50706e-08 4.52014e-06)
(0.00355295 2.79955e-07 3.95783e-06)
(0.0035386 5.46796e-07 3.45294e-06)
(0.0035259 8.5003e-07 3.0261e-06)
(0.0035146 1.1991e-06 2.68491e-06)
(0.00350449 1.56185e-06 2.41775e-06)
(0.00349545 1.87695e-06 2.1819e-06)
(0.00348746 2.07978e-06 1.92648e-06)
(0.00348059 2.1214e-06 1.63106e-06)
(0.00347496 1.97237e-06 1.30218e-06)
(0.00347063 1.6286e-06 9.55923e-07)
(0.00346761 1.11513e-06 6.21805e-07)
(0.00346581 4.86909e-07 3.22783e-07)
(0.00524783 -5.96989e-06 4.66083e-05)
(0.00506799 -5.84669e-06 4.15628e-05)
(0.00490763 -5.97309e-06 3.71692e-05)
(0.00476426 -6.26227e-06 3.33364e-05)
(0.0046357 -6.6335e-06 3.00098e-05)
(0.00452005 -7.03158e-06 2.71227e-05)
(0.00441569 -7.42941e-06 2.45862e-05)
(0.0043213 -7.80398e-06 2.23133e-05)
(0.00423586 -8.11804e-06 2.02441e-05)
(0.00415849 -8.33137e-06 1.83543e-05)
(0.00408842 -8.41864e-06 1.66441e-05)
(0.00402489 -8.37307e-06 1.51152e-05)
(0.00396722 -8.2065e-06 1.37576e-05)
(0.00391473 -7.948e-06 1.25518e-05)
(0.00386689 -7.63059e-06 1.14736e-05)
(0.00382324 -7.27367e-06 1.05034e-05)
(0.00378339 -6.87711e-06 9.63555e-06)
(0.003747 -6.42635e-06 8.8592e-06)
(0.00371377 -5.90659e-06 8.13736e-06)
(0.00368348 -5.3223e-06 7.44327e-06)
(0.00365595 -4.70359e-06 6.79265e-06)
(0.00363096 -4.08445e-06 6.1995e-06)
(0.00360831 -3.47506e-06 5.63477e-06)
(0.00358788 -2.86447e-06 5.06267e-06)
(0.0035696 -2.24658e-06 4.48239e-06)
(0.00355337 -1.63236e-06 3.92182e-06)
(0.00353902 -1.03548e-06 3.41728e-06)
(0.00352632 -4.62589e-07 3.00019e-06)
(0.00351501 7.59687e-08 2.68333e-06)
(0.00350486 5.5619e-07 2.44777e-06)
(0.00349572 9.4587e-07 2.24048e-06)
(0.0034876 1.21363e-06 2.00844e-06)
(0.00348057 1.33273e-06 1.72981e-06)
(0.00347477 1.28635e-06 1.40569e-06)
(0.00347028 1.07497e-06 1.04827e-06)
(0.00346713 7.15758e-07 6.87213e-07)
(0.00346525 2.43253e-07 3.49414e-07)
(0.0052464 -2.0965e-05 4.71091e-05)
(0.00506626 -1.92779e-05 4.19918e-05)
(0.00490568 -1.80424e-05 3.75116e-05)
(0.00476218 -1.71537e-05 3.3588e-05)
(0.00463356 -1.65174e-05 3.01766e-05)
(0.0045179 -1.605e-05 2.72158e-05)
(0.00441356 -1.56811e-05 2.4614e-05)
(0.00431924 -1.53503e-05 2.2284e-05)
(0.00423388 -1.5005e-05 2.01716e-05)
(0.00415662 -1.46086e-05 1.82534e-05)
(0.00408666 -1.41447e-05 1.65257e-05)
(0.00402324 -1.36108e-05 1.49915e-05)
(0.00396565 -1.30175e-05 1.36443e-05)
(0.00391322 -1.23896e-05 1.2459e-05)
(0.00386539 -1.17558e-05 1.13981e-05)
(0.00382175 -1.11344e-05 1.04306e-05)
(0.00378192 -1.05221e-05 9.54932e-06)
(0.00374558 -9.89053e-06 8.75561e-06)
(0.00371241 -9.20482e-06 8.03044e-06)
(0.00368216 -8.45617e-06 7.35055e-06)
(0.00365464 -7.67023e-06 6.71463e-06)
(0.00362964 -6.87237e-06 6.12061e-06)
(0.003607 -6.05694e-06 5.54681e-06)
(0.0035866 -5.20095e-06 4.9783e-06)
(0.00356834 -4.30157e-06 4.42209e-06)
(0.0035521 -3.39165e-06 3.89614e-06)
(0.00353771 -2.52174e-06 3.42558e-06)
(0.00352495 -1.73586e-06 3.03881e-06)
(0.00351356 -1.0636e-06 2.74817e-06)
(0.0035033 -5.18158e-07 2.53374e-06)
(0.00349405 -9.95197e-08 2.34473e-06)
(0.00348578 1.96199e-07 2.1276e-06)
(0.0034786 3.69437e-07 1.85508e-06)
(0.00347264 4.21723e-07 1.52437e-06)
(0.00346801 3.59991e-07 1.15163e-06)
(0.00346475 1.92454e-07 7.68629e-07)
(0.00346279 -7.04097e-08 3.98077e-07)
(0.00346208 -3.94093e-07 4.96794e-08)
(0.00524164 -3.6997e-05 4.74384e-05)
(0.00506111 -3.36066e-05 4.22597e-05)
(0.00490024 -3.08395e-05 3.77122e-05)
(0.00475653 -2.85776e-05 3.3713e-05)
(0.00462779 -2.6728e-05 3.02234e-05)
(0.00451208 -2.51981e-05 2.71915e-05)
(0.00440774 -2.38908e-05 2.45314e-05)
(0.00431345 -2.2717e-05 2.21572e-05)
(0.00422816 -2.16083e-05 2.00142e-05)
(0.00415098 -2.05253e-05 1.80755e-05)
(0.0040811 -1.94578e-05 1.63354e-05)
(0.00401775 -1.84137e-05 1.48007e-05)
(0.00396021 -1.74055e-05 1.34673e-05)
(0.0039078 -1.6442e-05 1.23046e-05)
(0.00385997 -1.55239e-05 1.12631e-05)
(0.0038163 -1.46452e-05 1.02986e-05)
(0.00377647 -1.37952e-05 9.40026e-06)
(0.00374015 -1.29516e-05 8.583e-06)
(0.00370703 -1.2083e-05 7.84814e-06)
(0.00367682 -1.11717e-05 7.17565e-06)
(0.00364931 -1.02245e-05 6.54797e-06)
(0.00362432 -9.24967e-06 5.9516e-06)
(0.00360171 -8.23757e-06 5.3748e-06)
(0.00358136 -7.17477e-06 4.82108e-06)
(0.00356312 -6.07089e-06 4.30395e-06)
(0.00354687 -4.9696e-06 3.83314e-06)
(0.00353242 -3.93697e-06 3.42068e-06)
(0.00351955 -3.03723e-06 3.08111e-06)
(0.00350802 -2.31072e-06 2.82022e-06)
(0.00349762 -1.76057e-06 2.62124e-06)
(0.00348821 -1.35733e-06 2.4417e-06)
(0.0034798 -1.06063e-06 2.23017e-06)
(0.00347247 -8.37688e-07 1.95374e-06)
(0.00346638 -6.69302e-07 1.60986e-06)
(0.00346163 -5.49574e-07 1.22312e-06)
(0.00345826 -4.83488e-07 8.26812e-07)
(0.00345623 -4.7678e-07 4.32686e-07)
(0.00345549 -5.12903e-07 4.09035e-08)
(0.00522551 -5.05402e-05 4.63532e-05)
(0.00504464 -4.56575e-05 4.12509e-05)
(0.00488354 -4.15144e-05 3.67673e-05)
(0.00473969 -3.79823e-05 3.28178e-05)
(0.00461089 -3.49845e-05 2.93653e-05)
(0.00449516 -3.24407e-05 2.63643e-05)
(0.00439086 -3.02426e-05 2.37333e-05)
(0.00429664 -2.82777e-05 2.13889e-05)
(0.00421143 -2.64611e-05 1.9278e-05)
(0.00413433 -2.47499e-05 1.73753e-05)
(0.00406453 -2.31435e-05 1.56749e-05)
(0.00400125 -2.1664e-05 1.41802e-05)
(0.00394374 -2.03247e-05 1.28826e-05)
(0.00389135 -1.91117e-05 1.17509e-05)
(0.00384353 -1.79863e-05 1.0738e-05)
(0.00379986 -1.69061e-05 9.79771e-06)
(0.00376003 -1.585e-05 8.91404e-06)
(0.00372373 -1.48142e-05 8.10384e-06)
(0.00369063 -1.37875e-05 7.37857e-06)
(0.00366045 -1.27513e-05 6.72462e-06)
(0.00363296 -1.16933e-05 6.12175e-06)
(0.003608 -1.06046e-05 5.5531e-06)
(0.00358542 -9.47614e-06 5.00895e-06)
(0.0035651 -8.31067e-06 4.4972e-06)
(0.00354689 -7.13257e-06 4.0343e-06)
(0.00353063 -5.98949e-06 3.62949e-06)
(0.00351611 -4.94576e-06 3.28694e-06)
(0.00350312 -4.06414e-06 3.00726e-06)
(0.00349144 -3.38052e-06 2.78306e-06)
(0.00348087 -2.88858e-06 2.59832e-06)
(0.0034713 -2.53969e-06 2.4223e-06)
(0.00346272 -2.26245e-06 2.21082e-06)
(0.00345525 -1.99436e-06 1.93101e-06)
(0.00344902 -1.70607e-06 1.58351e-06)
(0.00344414 -1.40335e-06 1.19839e-06)
(0.00344067 -1.1068e-06 8.06539e-07)
(0.00343857 -8.26319e-07 4.11548e-07)
(0.00343781 -5.59018e-07 6.5618e-09)
(0.00516491 -5.58543e-05 4.0863e-05)
(0.00498447 -5.03263e-05 3.6289e-05)
(0.00482384 -4.55236e-05 3.2278e-05)
(0.00468047 -4.13299e-05 2.87539e-05)
(0.00455215 -3.76968e-05 2.56779e-05)
(0.00443691 -3.4571e-05 2.30045e-05)
(0.00433307 -3.18512e-05 2.06607e-05)
(0.00423929 -2.94207e-05 1.85739e-05)
(0.0041545 -2.71937e-05 1.67002e-05)
(0.00407778 -2.51327e-05 1.50201e-05)
(0.00400831 -2.32445e-05 1.35254e-05)
(0.00394532 -2.15541e-05 1.2209e-05)
(0.00388806 -2.00699e-05 1.10556e-05)
(0.00383589 -1.87639e-05 1.00409e-05)
(0.00378827 -1.75751e-05 9.13433e-06)
(0.00374478 -1.64349e-05 8.30272e-06)
(0.00370508 -1.53092e-05 7.52844e-06)
(0.00366889 -1.42058e-05 6.8188e-06)
(0.0036359 -1.31363e-05 6.18283e-06)
(0.00360583 -1.2096e-05 5.61385e-06)
(0.00357844 -1.10714e-05 5.09848e-06)
(0.00355357 -1.00438e-05 4.62181e-06)
(0.00353107 -8.99682e-06 4.17195e-06)
(0.00351084 -7.93537e-06 3.75273e-06)
(0.00349273 -6.89073e-06 3.37981e-06)
(0.00347654 -5.91147e-06 3.06464e-06)
(0.00346205 -5.05048e-06 2.80841e-06)
(0.00344902 -4.34711e-06 2.60056e-06)
(0.00343724 -3.81495e-06 2.42342e-06)
(0.00342655 -3.43772e-06 2.26143e-06)
(0.00341683 -3.16415e-06 2.09543e-06)
(0.00340809 -2.91597e-06 1.89556e-06)
(0.00340044 -2.62283e-06 1.63809e-06)
(0.00339403 -2.25913e-06 1.32692e-06)
(0.00338901 -1.84399e-06 9.88195e-07)
(0.00338541 -1.40509e-06 6.46064e-07)
(0.00338324 -9.46112e-07 3.04149e-07)
(0.00338246 -4.68081e-07 -4.52688e-08)
(0.00483912 -3.31437e-05 2.81925e-05)
(0.00466472 -2.98477e-05 2.48659e-05)
(0.00450953 -2.69452e-05 2.19765e-05)
(0.0043711 -2.43757e-05 1.9465e-05)
(0.00424726 -2.21223e-05 1.72926e-05)
(0.00413609 -2.01669e-05 1.54156e-05)
(0.00403592 -1.84563e-05 1.37772e-05)
(0.00394545 -1.69238e-05 1.23259e-05)
(0.00386365 -1.55225e-05 1.10314e-05)
(0.00378965 -1.42343e-05 9.87963e-06)
(0.00372265 -1.30644e-05 8.86134e-06)
(0.00366189 -1.20258e-05 7.96328e-06)
(0.00360666 -1.11201e-05 7.16772e-06)
(0.00355632 -1.03295e-05 6.4594e-06)
(0.00351036 -9.6178e-06 5.8272e-06)
(0.00346835 -8.94081e-06 5.25921e-06)
(0.00342998 -8.27392e-06 4.74572e-06)
(0.00339498 -7.6235e-06 4.28479e-06)
(0.00336307 -7.00341e-06 3.87541e-06)
(0.00333398 -6.41661e-06 3.51142e-06)
(0.00330748 -5.85803e-06 3.18431e-06)
(0.0032834 -5.31547e-06 2.88434e-06)
(0.00326164 -4.7746e-06 2.60395e-06)
(0.00324208 -4.23439e-06 2.34586e-06)
(0.0032246 -3.71193e-06 2.12057e-06)
(0.003209 -3.2336e-06 1.93569e-06)
(0.00319504 -2.82462e-06 1.78968e-06)
(0.00318245 -2.49771e-06 1.67076e-06)
(0.00317101 -2.2501e-06 1.5625e-06)
(0.00316057 -2.06867e-06 1.45312e-06)
(0.00315101 -1.92726e-06 1.33372e-06)
(0.00314235 -1.78444e-06 1.19076e-06)
(0.0031347 -1.60154e-06 1.01256e-06)
(0.00312826 -1.36743e-06 8.01631e-07)
(0.00312318 -1.0993e-06 5.74167e-07)
(0.00311955 -8.15796e-07 3.45654e-07)
(0.00311736 -5.15115e-07 1.27603e-07)
(0.00311659 -1.93065e-07 -8.0579e-08)
(0.00558496 2.26469e-05 0.000107464)
(0.00537451 2.01309e-05 9.48177e-05)
(0.00518788 1.8022e-05 8.39879e-05)
(0.00502171 1.62199e-05 7.46608e-05)
(0.00487322 1.46579e-05 6.65905e-05)
(0.00474008 1.32975e-05 5.95857e-05)
(0.00462034 1.21093e-05 5.34871e-05)
(0.00451235 1.10663e-05 4.81539e-05)
(0.00441471 1.01453e-05 4.34644e-05)
(0.00432621 9.32617e-06 3.93192e-05)
(0.00424586 8.58702e-06 3.56374e-05)
(0.00417283 7.9082e-06 3.23459e-05)
(0.00410638 7.28099e-06 2.93777e-05)
(0.00404592 6.70911e-06 2.66806e-05)
(0.00399087 6.19996e-06 2.42244e-05)
(0.0039407 5.7529e-06 2.19891e-05)
(0.00389495 5.35496e-06 1.9952e-05)
(0.0038532 4.99022e-06 1.80887e-05)
(0.00381511 4.6488e-06 1.63823e-05)
(0.00378041 4.32079e-06 1.48173e-05)
(0.00374884 3.99264e-06 1.33696e-05)
(0.0037202 3.65902e-06 1.20155e-05)
(0.00369432 3.32832e-06 1.07491e-05)
(0.00367104 3.01439e-06 9.58071e-06)
(0.00365015 2.73275e-06 8.52073e-06)
(0.00363144 2.49952e-06 7.56658e-06)
(0.00361468 2.32278e-06 6.70346e-06)
(0.00359967 2.19475e-06 5.91299e-06)
(0.00358624 2.09357e-06 5.17995e-06)
(0.00357428 1.9928e-06 4.49178e-06)
(0.00356369 1.87177e-06 3.83806e-06)
(0.00355445 1.71593e-06 3.21337e-06)
(0.00354652 1.51566e-06 2.61926e-06)
(0.00353993 1.27226e-06 2.06418e-06)
(0.00353465 1.00238e-06 1.56199e-06)
(0.00353066 7.28232e-07 1.12212e-06)
(0.00352786 4.74666e-07 7.46456e-07)
(0.00352613 2.53381e-07 4.24357e-07)
(0.00586008 4.10285e-05 0.000140404)
(0.00564235 3.63415e-05 0.000124371)
(0.00544922 3.24256e-05 0.000110608)
(0.00527723 2.91062e-05 9.87067e-05)
(0.00512355 2.62563e-05 8.83636e-05)
(0.00498579 2.3791e-05 7.93485e-05)
(0.00486194 2.16467e-05 7.14655e-05)
(0.00475031 1.9769e-05 6.45435e-05)
(0.00464945 1.81099e-05 5.84418e-05)
(0.00455812 1.66258e-05 5.30427e-05)
(0.00447529 1.52782e-05 4.82337e-05)
(0.00440008 1.40401e-05 4.39083e-05)
(0.00433174 1.2904e-05 3.99861e-05)
(0.0042696 1.18787e-05 3.64217e-05)
(0.00421305 1.09758e-05 3.31872e-05)
(0.00416154 1.01922e-05 3.02481e-05)
(0.00411459 9.50496e-06 2.75593e-05)
(0.00407178 8.88589e-06 2.50843e-05)
(0.00403275 8.31361e-06 2.2802e-05)
(0.00399721 7.76729e-06 2.06867e-05)
(0.00396489 7.22405e-06 1.87025e-05)
(0.00393556 6.67321e-06 1.68334e-05)
(0.00390901 6.12308e-06 1.50931e-05)
(0.00388506 5.59296e-06 1.34971e-05)
(0.00386351 5.10821e-06 1.20497e-05)
(0.00384416 4.69469e-06 1.07515e-05)
(0.00382682 4.36537e-06 9.59697e-06)
(0.00381132 4.11182e-06 8.56381e-06)
(0.00379751 3.90777e-06 7.61129e-06)
(0.00378525 3.71834e-06 6.6959e-06)
(0.00377445 3.50823e-06 5.79493e-06)
(0.00376504 3.24404e-06 4.90752e-06)
(0.00375699 2.90016e-06 4.03943e-06)
(0.00375026 2.47335e-06 3.2054e-06)
(0.00374483 1.98662e-06 2.43046e-06)
(0.00374068 1.47683e-06 1.7336e-06)
(0.00373772 9.87678e-07 1.12762e-06)
(0.00373588 5.43163e-07 6.10766e-07)
(0.00589709 4.16336e-05 0.000154811)
(0.00567915 3.6755e-05 0.000137265)
(0.00548572 3.26812e-05 0.00012223)
(0.00531339 2.92389e-05 0.00010925)
(0.00515937 2.62964e-05 9.79751e-05)
(0.00502129 2.37586e-05 8.81338e-05)
(0.00489717 2.15526e-05 7.95065e-05)
(0.00478532 1.96169e-05 7.19202e-05)
(0.00468428 1.78963e-05 6.52333e-05)
(0.00459285 1.63439e-05 5.93074e-05)
(0.00450998 1.49262e-05 5.39995e-05)
(0.0044348 1.36274e-05 4.91919e-05)
(0.00436654 1.24488e-05 4.48189e-05)
(0.00430451 1.14025e-05 4.0856e-05)
(0.00424809 1.04997e-05 3.72852e-05)
(0.00419672 9.73625e-06 3.40633e-05)
(0.0041499 9.08836e-06 3.11218e-05)
(0.00410723 8.52475e-06 2.8405e-05)
(0.00406834 8.01943e-06 2.58878e-05)
(0.00403293 7.5491e-06 2.35445e-05)
(0.00400073 7.09029e-06 2.13387e-05)
(0.00397149 6.62787e-06 1.92584e-05)
(0.00394501 6.16002e-06 1.7319e-05)
(0.00392108 5.69586e-06 1.55308e-05)
(0.00389951 5.25407e-06 1.3895e-05)
(0.00388013 4.85769e-06 1.24187e-05)
(0.00386277 4.52325e-06 1.11056e-05)
(0.00384728 4.25477e-06 9.93413e-06)
(0.00383349 4.04312e-06 8.85578e-06)
(0.00382128 3.86584e-06 7.82419e-06)
(0.00381054 3.68855e-06 6.82215e-06)
(0.00380118 3.46842e-06 5.84388e-06)
(0.00379316 3.16566e-06 4.87588e-06)
(0.00378644 2.76256e-06 3.91955e-06)
(0.00378099 2.27171e-06 3.00173e-06)
(0.0037768 1.72753e-06 2.15681e-06)
(0.0037738 1.17746e-06 1.42036e-06)
(0.00377193 6.56853e-07 8.01243e-07)
(0.00590097 3.37349e-05 0.000159379)
(0.00568359 2.96972e-05 0.00014134)
(0.00549055 2.62989e-05 0.000125916)
(0.0053185 2.34069e-05 0.000112622)
(0.00516469 2.09209e-05 0.000101083)
(0.00502679 1.87686e-05 9.1009e-05)
(0.00490283 1.68901e-05 8.21743e-05)
(0.00479112 1.52313e-05 7.44068e-05)
(0.00469023 1.37447e-05 6.75529e-05)
(0.00459895 1.23955e-05 6.14489e-05)
(0.00451626 1.11651e-05 5.59405e-05)
(0.00444128 1.00505e-05 5.0928e-05)
(0.00437325 9.05865e-06 4.63733e-05)
(0.00431145 8.19992e-06 4.22662e-05)
(0.00425526 7.48031e-06 3.85893e-05)
(0.00420411 6.89411e-06 3.52908e-05)
(0.0041575 6.42182e-06 3.22906e-05)
(0.00411502 6.03767e-06 2.95275e-05)
(0.0040763 5.71757e-06 2.69741e-05)
(0.00404105 5.43897e-06 2.45968e-05)
(0.00400898 5.18003e-06 2.23542e-05)
(0.00397986 4.92437e-06 2.02411e-05)
(0.00395346 4.66267e-06 1.82748e-05)
(0.00392959 4.3919e-06 1.64493e-05)
(0.00390805 4.11804e-06 1.4747e-05)
(0.0038887 3.85654e-06 1.31738e-05)
(0.00387138 3.62657e-06 1.17491e-05)
(0.00385594 3.44378e-06 1.04714e-05)
(0.00384222 3.31295e-06 9.30874e-06)
(0.00383008 3.2218e-06 8.2307e-06)
(0.00381938 3.13991e-06 7.22539e-06)
(0.00381005 3.02377e-06 6.26769e-06)
(0.00380202 2.82954e-06 5.31304e-06)
(0.00379528 2.5309e-06 4.34207e-06)
(0.00378979 2.12819e-06 3.3765e-06)
(0.00378556 1.64638e-06 2.45966e-06)
(0.00378254 1.12642e-06 1.64203e-06)
(0.00378067 6.11118e-07 9.42606e-07)
(0.00589953 2.14333e-05 0.000160173)
(0.0056826 1.87626e-05 0.000142054)
(0.00548991 1.64635e-05 0.000126565)
(0.00531814 1.44667e-05 0.000113206)
(0.00516455 1.27201e-05 0.000101612)
(0.00502685 1.1186e-05 9.1501e-05)
(0.00490305 9.82982e-06 8.26508e-05)
(0.00479148 8.61799e-06 7.48717e-05)
(0.00469072 7.52334e-06 6.79831e-05)
(0.00459958 6.53034e-06 6.18069e-05)
(0.00451705 5.63588e-06 5.62054e-05)
(0.00444224 4.84563e-06 5.11101e-05)
(0.00437438 4.16794e-06 4.64994e-05)
(0.00431277 3.60813e-06 4.23588e-05)
(0.00425676 3.16591e-06 3.86603e-05)
(0.00420578 2.83463e-06 3.53492e-05)
(0.00415932 2.60094e-06 3.23535e-05)
(0.00411698 2.44772e-06 2.96214e-05)
(0.00407839 2.35784e-06 2.71182e-05)
(0.00404323 2.31395e-06 2.47885e-05)
(0.00401125 2.29727e-06 2.25843e-05)
(0.00398219 2.29049e-06 2.05138e-05)
(0.00395584 2.27986e-06 1.85979e-05)
(0.00393199 2.25561e-06 1.68068e-05)
(0.00391046 2.21517e-06 1.5094e-05)
(0.00389113 2.1658e-06 1.34587e-05)
(0.00387384 2.12257e-06 1.19398e-05)
(0.00385844 2.10236e-06 1.05691e-05)
(0.00384477 2.11449e-06 9.34931e-06)
(0.00383267 2.15301e-06 8.27068e-06)
(0.00382199 2.19431e-06 7.31488e-06)
(0.00381265 2.20121e-06 6.42668e-06)
(0.00380459 2.13396e-06 5.5322e-06)
(0.00379778 1.96561e-06 4.59629e-06)
(0.00379223 1.69003e-06 3.63151e-06)
(0.00378794 1.32233e-06 2.67769e-06)
(0.00378488 8.934e-07 1.78956e-06)
(0.00378302 4.43521e-07 9.98289e-07)
(0.00568137 6.83914e-06 0.000141937)
(0.00548884 5.78493e-06 0.000126439)
(0.0053172 4.80204e-06 0.000113039)
(0.00516374 3.88924e-06 0.000101398)
(0.00502614 3.04561e-06 9.12663e-05)
(0.00490244 2.26934e-06 8.24187e-05)
(0.00479096 1.55757e-06 7.4638e-05)
(0.00469029 9.09552e-07 6.77174e-05)
(0.00459925 3.29305e-07 6.14842e-05)
(0.00451683 -1.74368e-07 5.58293e-05)
(0.00444214 -5.91202e-07 5.07069e-05)
(0.00437442 -9.14943e-07 4.60956e-05)
(0.00431293 -1.1467e-06 4.19663e-05)
(0.00425704 -1.29316e-06 3.82782e-05)
(0.00420616 -1.36226e-06 3.49761e-05)
(0.00415981 -1.36149e-06 3.20025e-05)
(0.00411756 -1.29742e-06 2.93178e-05)
(0.00407904 -1.17629e-06 2.68783e-05)
(0.00404395 -1.00749e-06 2.46095e-05)
(0.00401201 -8.05945e-07 2.24617e-05)
(0.00398299 -5.87761e-07 2.04543e-05)
(0.00395665 -3.65311e-07 1.86036e-05)
(0.0039328 -1.47272e-07 1.68593e-05)
(0.00391127 6.09457e-08 1.51574e-05)
(0.00389193 2.58065e-07 1.34942e-05)
(0.00387465 4.46811e-07 1.1921e-05)
(0.00385927 6.32246e-07 1.04975e-05)
(0.00384563 8.16913e-07 9.25958e-06)
(0.00383353 9.95164e-07 8.21415e-06)
(0.00382285 1.15141e-06 7.32742e-06)
(0.00381347 1.26114e-06 6.51522e-06)
(0.00380534 1.29785e-06 5.68596e-06)
(0.00379845 1.24414e-06 4.79561e-06)
(0.00379281 1.0954e-06 3.8456e-06)
(0.00378845 8.59421e-07 2.86583e-06)
(0.00378535 5.54749e-07 1.9112e-06)
(0.00378346 2.10375e-07 1.02615e-06)
(0.00568101 -5.55635e-06 0.00014221)
(0.00548841 -5.28614e-06 0.00012664)
(0.00531674 -5.16891e-06 0.00011313)
(0.00516326 -5.16495e-06 0.000101374)
(0.00502567 -5.24348e-06 9.11485e-05)
(0.00490199 -5.3744e-06 8.22312e-05)
(0.00479054 -5.52668e-06 7.43836e-05)
(0.00468992 -5.67275e-06 6.73876e-05)
(0.00459894 -5.79007e-06 6.10839e-05)
(0.00451659 -5.86065e-06 5.53818e-05)
(0.00444198 -5.87326e-06 5.02411e-05)
(0.00437433 -5.82604e-06 4.56367e-05)
(0.00431292 -5.72542e-06 4.15318e-05)
(0.00425709 -5.58062e-06 3.78727e-05)
(0.00420627 -5.39741e-06 3.45942e-05)
(0.00415997 -5.17571e-06 3.16397e-05)
(0.00411776 -4.91169e-06 2.8976e-05)
(0.00407929 -4.60161e-06 2.65635e-05)
(0.00404424 -4.24706e-06 2.43322e-05)
(0.00401233 -3.85701e-06 2.22344e-05)
(0.00398332 -3.44218e-06 2.0279e-05)
(0.00395698 -3.00937e-06 1.8467e-05)
(0.00393313 -2.56306e-06 1.67447e-05)
(0.00391159 -2.10972e-06 1.50583e-05)
(0.00389224 -1.65998e-06 1.34079e-05)
(0.00387495 -1.2284e-06 1.1842e-05)
(0.00385956 -8.29921e-07 1.04264e-05)
(0.00384589 -4.76071e-07 9.21399e-06)
(0.00383377 -1.74727e-07 8.21883e-06)
(0.00382304 6.79003e-08 7.39562e-06)
(0.0038136 2.45387e-07 6.64466e-06)
(0.00380538 3.53267e-07 5.86682e-06)
(0.0037984 3.91918e-07 5.01063e-06)
(0.00379268 3.63693e-07 4.06776e-06)
(0.00378824 2.71014e-07 3.06299e-06)
(0.00378507 1.19309e-07 2.05215e-06)
(0.00378316 -7.66707e-08 1.08657e-06)
(0.00568152 -1.77756e-05 0.000142756)
(0.00548866 -1.61672e-05 0.000127076)
(0.00531678 -1.49075e-05 0.000113423)
(0.00516315 -1.39296e-05 0.000101512)
(0.00502546 -1.31835e-05 9.11409e-05)
(0.00490171 -1.2615e-05 8.20961e-05)
(0.00479024 -1.21619e-05 7.4137e-05)
(0.00468961 -1.17679e-05 6.70461e-05)
(0.00459864 -1.13914e-05 6.06708e-05)
(0.00451632 -1.10077e-05 5.49229e-05)
(0.00444174 -1.06093e-05 4.97606e-05)
(0.00437412 -1.02014e-05 4.51622e-05)
(0.00431273 -9.79224e-06 4.10909e-05)
(0.00425691 -9.38614e-06 3.74786e-05)
(0.00420609 -8.97861e-06 3.42373e-05)
(0.00415979 -8.55813e-06 3.12948e-05)
(0.0041176 -8.11332e-06 2.86196e-05)
(0.00407915 -7.6364e-06 2.61943e-05)
(0.00404411 -7.12348e-06 2.39741e-05)
(0.00401221 -6.57488e-06 2.19114e-05)
(0.00398319 -5.99229e-06 1.99885e-05)
(0.00395685 -5.37535e-06 1.8187e-05)
(0.00393299 -4.72563e-06 1.64683e-05)
(0.00391145 -4.05291e-06 1.4808e-05)
(0.00389208 -3.37849e-06 1.32147e-05)
(0.00387475 -2.73477e-06 1.17214e-05)
(0.00385931 -2.15695e-06 1.03782e-05)
(0.00384558 -1.6708e-06 9.23301e-06)
(0.00383339 -1.2866e-06 8.29849e-06)
(0.00382257 -1.00019e-06 7.52772e-06)
(0.00381303 -7.96346e-07 6.82219e-06)
(0.00380472 -6.52067e-07 6.07936e-06)
(0.00379764 -5.44081e-07 5.23854e-06)
(0.00379182 -4.60481e-07 4.28734e-06)
(0.00378729 -4.03738e-07 3.25599e-06)
(0.00378405 -3.80553e-07 2.2016e-06)
(0.00378209 -3.91543e-07 1.16771e-06)
(0.00378135 -4.28215e-07 1.78192e-07)
(0.00568179 -2.9187e-05 0.000142223)
(0.00548848 -2.63063e-05 0.000126534)
(0.00531626 -2.39261e-05 0.000112844)
(0.00516237 -2.19652e-05 0.000100869)
(0.00502449 -2.03708e-05 9.04219e-05)
(0.00490061 -1.90766e-05 8.13079e-05)
(0.00478904 -1.79952e-05 7.32947e-05)
(0.00468835 -1.70429e-05 6.61679e-05)
(0.00459735 -1.61602e-05 5.97757e-05)
(0.004515 -1.53195e-05 5.40273e-05)
(0.0044404 -1.45222e-05 4.88813e-05)
(0.00437276 -1.3781e-05 4.43201e-05)
(0.00431134 -1.31017e-05 4.03061e-05)
(0.00425548 -1.24757e-05 3.67591e-05)
(0.00420462 -1.18799e-05 3.35723e-05)
(0.00415828 -1.12865e-05 3.06549e-05)
(0.00411606 -1.06785e-05 2.79739e-05)
(0.00407759 -1.00505e-05 2.55353e-05)
(0.00404252 -9.39782e-06 2.33231e-05)
(0.00401059 -8.71434e-06 2.12919e-05)
(0.00398155 -7.99268e-06 1.94017e-05)
(0.00395518 -7.225e-06 1.76214e-05)
(0.0039313 -6.41111e-06 1.59288e-05)
(0.00390974 -5.56672e-06 1.43253e-05)
(0.00389034 -4.72543e-06 1.28279e-05)
(0.00387296 -3.93538e-06 1.14555e-05)
(0.00385744 -3.24631e-06 1.02353e-05)
(0.00384361 -2.692e-06 9.19394e-06)
(0.0038313 -2.28207e-06 8.3325e-06)