/*--------------------------------*- C++ -*----------------------------------*\
| =========                 |                                                 |
| \\      /  F ield         | OpenFOAM: The Open Source CFD Toolbox           |
|  \\    /   O peration     | Version:  2.3.1                                 |
|   \\  /    A nd           | Web:      www.OpenFOAM.org                      |
|    \\/     M anipulation  |                                                 |
\*---------------------------------------------------------------------------*/
FoamFile
{
    version     2.0;
    format      ascii;
    class       volVectorField;
    location    "15";
    object      U_0;
}
// * * * * * * * * * * * * * * * * * * * * * * * * * * * * * * * * * * * * * //

dimensions      [0 1 -1 0 0 0 0];

internalField   nonuniform List<vector> 
38262
(
(0.00503884 3.67604e-05 3.18425e-05)
(0.0048432 3.29109e-05 2.80255e-05)
(0.00466968 2.9608e-05 2.47686e-05)
(0.00451513 2.67329e-05 2.19697e-05)
(0.00437701 2.42032e-05 1.95523e-05)
(0.00425317 2.19694e-05 1.74611e-05)
(0.00414178 1.99923e-05 1.56497e-05)
(0.0040413 1.82347e-05 1.40738e-05)
(0.00395041 1.66659e-05 1.26934e-05)
(0.00386802 1.52598e-05 1.14768e-05)
(0.00379319 1.39881e-05 1.03998e-05)
(0.00372514 1.2824e-05 9.4403e-06)
(0.00366322 1.17541e-05 8.57563e-06)
(0.00360686 1.0781e-05 7.7876e-06)
(0.00355554 9.90992e-06 7.06691e-06)
(0.00350877 9.13414e-06 6.40927e-06)
(0.0034661 8.43378e-06 5.80883e-06)
(0.00342715 7.78938e-06 5.25862e-06)
(0.00339162 7.19031e-06 4.75471e-06)
(0.00335924 6.62489e-06 4.29364e-06)
(0.00332977 6.07633e-06 3.86662e-06)
(0.00330305 5.53937e-06 3.46353e-06)
(0.00327895 5.02613e-06 3.08287e-06)
(0.00325729 4.54882e-06 2.73213e-06)
(0.00323788 4.11303e-06 2.41841e-06)
(0.00322051 3.72717e-06 2.14153e-06)
(0.00320495 3.40166e-06 1.89519e-06)
(0.00319101 3.13555e-06 1.67157e-06)
(0.0031785 2.90891e-06 1.4643e-06)
(0.00316732 2.69138e-06 1.26821e-06)
(0.0031574 2.45971e-06 1.07862e-06)
(0.00314872 2.20227e-06 8.93155e-07)
(0.00314128 1.91207e-06 7.13439e-07)
(0.00313511 1.58914e-06 5.45512e-07)
(0.0031302 1.24738e-06 3.97658e-07)
(0.0031265 9.05854e-07 2.7358e-07)
(0.00312392 5.87222e-07 1.75169e-07)
(0.00312232 3.04561e-07 9.55734e-08)
(0.00537096 6.24095e-05 4.57315e-05)
(0.00516849 5.56763e-05 4.05481e-05)
(0.0049888 4.99441e-05 3.6101e-05)
(0.00482871 4.50038e-05 3.22469e-05)
(0.00468559 4.06947e-05 2.889e-05)
(0.00455725 3.69045e-05 2.59643e-05)
(0.00444182 3.35491e-05 2.34102e-05)
(0.0043377 3.05636e-05 2.11704e-05)
(0.00424355 2.78945e-05 1.91977e-05)
(0.00415822 2.54883e-05 1.74552e-05)
(0.00408075 2.32911e-05 1.59065e-05)
(0.00401035 2.1267e-05 1.45124e-05)
(0.00394634 1.94134e-05 1.32415e-05)
(0.00388811 1.77507e-05 1.20795e-05)
(0.00383512 1.62946e-05 1.10213e-05)
(0.00378682 1.50321e-05 1.00572e-05)
(0.00374276 1.39222e-05 9.17055e-06)
(0.00370255 1.29215e-05 8.34847e-06)
(0.00366588 1.20029e-05 7.5878e-06)
(0.00363245 1.11424e-05 6.88125e-06)
(0.00360205 1.03119e-05 6.21149e-06)
(0.00357449 9.50028e-06 5.57087e-06)
(0.0035496 8.7171e-06 4.97079e-06)
(0.00352721 7.97137e-06 4.42396e-06)
(0.0035071 7.26941e-06 3.93401e-06)
(0.00348909 6.62959e-06 3.50237e-06)
(0.00347295 6.07647e-06 3.12865e-06)
(0.0034585 5.61764e-06 2.80319e-06)
(0.00344555 5.23283e-06 2.50537e-06)
(0.003434 4.88589e-06 2.21167e-06)
(0.00342377 4.5425e-06 1.91014e-06)
(0.00341484 4.16906e-06 1.60323e-06)
(0.00340719 3.72858e-06 1.29758e-06)
(0.00340082 3.19945e-06 1.0024e-06)
(0.00339574 2.59495e-06 7.32218e-07)
(0.0033919 1.95276e-06 4.98224e-07)
(0.00338921 1.32465e-06 3.05937e-07)
(0.00338754 7.43246e-07 1.5659e-07)
(0.00543129 5.73207e-05 5.17377e-05)
(0.00522835 5.09235e-05 4.59357e-05)
(0.00504814 4.55e-05 4.09719e-05)
(0.0048875 4.08507e-05 3.66827e-05)
(0.00474384 3.68143e-05 3.29523e-05)
(0.00461497 3.32695e-05 2.96935e-05)
(0.00449905 3.01286e-05 2.68338e-05)
(0.0043945 2.73264e-05 2.43172e-05)
(0.00429998 2.48034e-05 2.2102e-05)
(0.00421432 2.24975e-05 2.01443e-05)
(0.00413657 2.03632e-05 1.83899e-05)
(0.00406597 1.83932e-05 1.67902e-05)
(0.00400184 1.66141e-05 1.53219e-05)
(0.00394357 1.50577e-05 1.39844e-05)
(0.00389055 1.37383e-05 1.27811e-05)
(0.00384224 1.26401e-05 1.16991e-05)
(0.00379815 1.17209e-05 1.07083e-05)
(0.00375791 1.0935e-05 9.78391e-06)
(0.00372121 1.02485e-05 8.92082e-06)
(0.00368776 9.62993e-06 8.11342e-06)
(0.00365732 9.04819e-06 7.34471e-06)
(0.00362973 8.48691e-06 6.60986e-06)
(0.00360479 7.93951e-06 5.92194e-06)
(0.00358231 7.39312e-06 5.2897e-06)
(0.00356211 6.83798e-06 4.7146e-06)
(0.003544 6.28817e-06 4.20324e-06)
(0.0035278 5.77799e-06 3.76131e-06)
(0.00351332 5.33982e-06 3.37888e-06)
(0.00350037 4.98831e-06 3.02856e-06)
(0.00348884 4.7179e-06 2.68344e-06)
(0.00347863 4.50197e-06 2.33704e-06)
(0.00346969 4.28511e-06 1.99287e-06)
(0.003462 3.99344e-06 1.64651e-06)
(0.00345556 3.57271e-06 1.29814e-06)
(0.0034504 3.01548e-06 9.64232e-07)
(0.00344649 2.35523e-06 6.65017e-07)
(0.00344375 1.65079e-06 4.19778e-07)
(0.00344205 9.53253e-07 2.41271e-07)
(0.00544624 4.31181e-05 5.29273e-05)
(0.00524368 3.81724e-05 4.69939e-05)
(0.00506373 3.39361e-05 4.19377e-05)
(0.00490324 3.02604e-05 3.75834e-05)
(0.00475966 2.70368e-05 3.38023e-05)
(0.00463085 2.4194e-05 3.0496e-05)
(0.00451496 2.16747e-05 2.75899e-05)
(0.00441043 1.94185e-05 2.50337e-05)
(0.00431591 1.73608e-05 2.27834e-05)
(0.00423025 1.54503e-05 2.0781e-05)
(0.00415255 1.36744e-05 1.89626e-05)
(0.00408203 1.2061e-05 1.72887e-05)
(0.00401805 1.06481e-05 1.5754e-05)
(0.00395995 9.45646e-06 1.43682e-05)
(0.0039071 8.48386e-06 1.31352e-05)
(0.00385893 7.71145e-06 1.20377e-05)
(0.00381497 7.11261e-06 1.10382e-05)
(0.00377484 6.66061e-06 1.01088e-05)
(0.00373822 6.32437e-06 9.24461e-06)
(0.00370483 6.06246e-06 8.43619e-06)
(0.00367444 5.83808e-06 7.66319e-06)
(0.00364688 5.63486e-06 6.92524e-06)
(0.00362194 5.43906e-06 6.23857e-06)
(0.00359943 5.21966e-06 5.60306e-06)
(0.00357917 4.94573e-06 5.00853e-06)
(0.00356102 4.61883e-06 4.45999e-06)
(0.00354482 4.27923e-06 3.97194e-06)
(0.00353038 3.98393e-06 3.54482e-06)
(0.00351752 3.78018e-06 3.15868e-06)
(0.00350607 3.68528e-06 2.79602e-06)
(0.00349592 3.67074e-06 2.45659e-06)
(0.00348697 3.66312e-06 2.13471e-06)
(0.00347921 3.57211e-06 1.80717e-06)
(0.00347266 3.32949e-06 1.46181e-06)
(0.00346737 2.90978e-06 1.11318e-06)
(0.00346337 2.33013e-06 7.87282e-07)
(0.00346057 1.63718e-06 5.11832e-07)
(0.00345885 8.95249e-07 3.06461e-07)
(0.00544971 2.60935e-05 5.26506e-05)
(0.0052475 2.29642e-05 4.67418e-05)
(0.0050678 2.01834e-05 4.17138e-05)
(0.0049075 1.76797e-05 3.73809e-05)
(0.00476408 1.54229e-05 3.36175e-05)
(0.0046354 1.34065e-05 3.03331e-05)
(0.00451963 1.16106e-05 2.74574e-05)
(0.00441518 9.98655e-06 2.49327e-05)
(0.00432071 8.48131e-06 2.2699e-05)
(0.00423511 7.0738e-06 2.06873e-05)
(0.0041575 5.78752e-06 1.88415e-05)
(0.00408714 4.66652e-06 1.7143e-05)
(0.00402332 3.74027e-06 1.55985e-05)
(0.0039654 3.00939e-06 1.42139e-05)
(0.00391271 2.45575e-06 1.29848e-05)
(0.0038647 2.06045e-06 1.18916e-05)
(0.00382088 1.81312e-06 1.09029e-05)
(0.00378087 1.7048e-06 9.99893e-06)
(0.00374434 1.71097e-06 9.17257e-06)
(0.00371101 1.79194e-06 8.40021e-06)
(0.00368066 1.91441e-06 7.65481e-06)
(0.00365311 2.06121e-06 6.94537e-06)
(0.00362816 2.21122e-06 6.29451e-06)
(0.00360559 2.32586e-06 5.68977e-06)
(0.00358526 2.37013e-06 5.10172e-06)
(0.00356705 2.34059e-06 4.52883e-06)
(0.00355085 2.27223e-06 3.99546e-06)
(0.00353646 2.22407e-06 3.5212e-06)
(0.00352369 2.25236e-06 3.10666e-06)
(0.00351234 2.37978e-06 2.74709e-06)
(0.00350223 2.57399e-06 2.44032e-06)
(0.00349325 2.75786e-06 2.163e-06)
(0.00348539 2.84504e-06 1.8736e-06)
(0.00347869 2.77064e-06 1.55285e-06)
(0.00347324 2.5011e-06 1.21218e-06)
(0.00346909 2.03757e-06 8.75059e-07)
(0.00346619 1.41377e-06 5.71125e-07)
(0.00346444 6.96123e-07 3.21462e-07)
(0.0052479 8.51001e-06 4.64549e-05)
(0.00506827 7.1611e-06 4.1444e-05)
(0.00490803 5.80755e-06 3.71074e-05)
(0.00476471 4.49316e-06 3.33344e-05)
(0.00463615 3.26515e-06 3.00534e-05)
(0.00452048 2.1417e-06 2.71967e-05)
(0.0044161 1.10448e-06 2.46899e-05)
(0.00432168 1.33464e-07 2.24545e-05)
(0.00423616 -7.58396e-07 2.04222e-05)
(0.00415868 -1.52991e-06 1.85558e-05)
(0.00408848 -2.14253e-06 1.68527e-05)
(0.00402483 -2.58179e-06 1.53186e-05)
(0.00396705 -2.85914e-06 1.39486e-05)
(0.00391449 -3.00158e-06 1.2729e-05)
(0.00386659 -3.0337e-06 1.16405e-05)
(0.00382288 -2.96555e-06 1.06628e-05)
(0.00378298 -2.7988e-06 9.78634e-06)
(0.00374654 -2.54165e-06 8.99887e-06)
(0.00371325 -2.2112e-06 8.26163e-06)
(0.00368293 -1.8274e-06 7.54474e-06)
(0.0036554 -1.41369e-06 6.86779e-06)
(0.00363043 -1.00028e-06 6.25484e-06)
(0.00360781 -6.16547e-07 5.68089e-06)
(0.00358741 -2.78256e-07 5.1038e-06)
(0.00356915 1.5498e-08 4.51882e-06)
(0.00355294 2.80309e-07 3.95658e-06)
(0.00353859 5.47086e-07 3.45175e-06)
(0.00352589 8.50268e-07 3.02499e-06)
(0.00351459 1.1993e-06 2.68389e-06)
(0.00350449 1.562e-06 2.41683e-06)
(0.00349545 1.87706e-06 2.18107e-06)
(0.00348746 2.07983e-06 1.92573e-06)
(0.0034806 2.12139e-06 1.63038e-06)
(0.00347497 1.97232e-06 1.30156e-06)
(0.00347065 1.62855e-06 9.55351e-07)
(0.00346763 1.11512e-06 6.21295e-07)
(0.00346582 4.8698e-07 3.22334e-07)
(0.00524737 -5.96756e-06 4.65941e-05)
(0.00506759 -5.84467e-06 4.15504e-05)
(0.00490727 -5.97132e-06 3.71581e-05)
(0.00476394 -6.26069e-06 3.33266e-05)
(0.00463542 -6.63207e-06 3.00011e-05)
(0.00451979 -7.03026e-06 2.71149e-05)
(0.00441546 -7.42818e-06 2.45793e-05)
(0.0043211 -7.80283e-06 2.23071e-05)
(0.00423568 -8.11695e-06 2.02385e-05)
(0.00415833 -8.33031e-06 1.83493e-05)
(0.00408827 -8.41755e-06 1.66396e-05)
(0.00402476 -8.37194e-06 1.51111e-05)
(0.0039671 -8.20531e-06 1.37539e-05)
(0.00391463 -7.94675e-06 1.25484e-05)
(0.0038668 -7.62932e-06 1.14705e-05)
(0.00382316 -7.27239e-06 1.05005e-05)
(0.00378332 -6.87584e-06 9.63294e-06)
(0.00374694 -6.42509e-06 8.85681e-06)
(0.00371371 -5.90533e-06 8.13519e-06)
(0.00368343 -5.32106e-06 7.44131e-06)
(0.0036559 -4.70237e-06 6.79088e-06)
(0.00363092 -4.08329e-06 6.19789e-06)
(0.00360828 -3.47397e-06 5.63329e-06)
(0.00358785 -2.86345e-06 5.06129e-06)
(0.00356958 -2.24563e-06 4.48109e-06)
(0.00355335 -1.63148e-06 3.92058e-06)
(0.00353901 -1.03464e-06 3.41611e-06)
(0.00352631 -4.618e-07 2.9991e-06)
(0.00351501 7.66906e-08 2.68232e-06)
(0.00350486 5.56823e-07 2.44686e-06)
(0.00349573 9.46392e-07 2.23966e-06)
(0.0034876 1.21403e-06 2.00769e-06)
(0.00348058 1.33302e-06 1.72912e-06)
(0.00347478 1.28654e-06 1.40505e-06)
(0.00347029 1.07511e-06 1.04768e-06)
(0.00346714 7.1586e-07 6.86687e-07)
(0.00346527 2.43361e-07 3.48955e-07)
(0.00524594 -2.0958e-05 4.7095e-05)
(0.00506586 -1.92718e-05 4.19793e-05)
(0.00490532 -1.8037e-05 3.75006e-05)
(0.00476186 -1.71489e-05 3.35782e-05)
(0.00463328 -1.65131e-05 3.0168e-05)
(0.00451764 -1.60461e-05 2.72081e-05)
(0.00441333 -1.56776e-05 2.46071e-05)
(0.00431903 -1.53471e-05 2.22779e-05)
(0.0042337 -1.5002e-05 2.0166e-05)
(0.00415645 -1.46058e-05 1.82484e-05)
(0.00408651 -1.4142e-05 1.65212e-05)
(0.00402311 -1.36082e-05 1.49874e-05)
(0.00396553 -1.3015e-05 1.36406e-05)
(0.00391311 -1.23871e-05 1.24557e-05)
(0.0038653 -1.17534e-05 1.13951e-05)
(0.00382167 -1.11321e-05 1.04278e-05)
(0.00378185 -1.05199e-05 9.54675e-06)
(0.00374552 -9.8884e-06 8.75327e-06)
(0.00371235 -9.2028e-06 8.02832e-06)
(0.00368211 -8.45426e-06 7.34864e-06)
(0.00365459 -7.66845e-06 6.71291e-06)
(0.0036296 -6.87072e-06 6.11904e-06)
(0.00360697 -6.05541e-06 5.54536e-06)
(0.00358657 -5.19952e-06 4.97694e-06)
(0.00356832 -4.3002e-06 4.42081e-06)
(0.00355208 -3.39032e-06 3.89493e-06)
(0.0035377 -2.52044e-06 3.42445e-06)
(0.00352494 -1.73462e-06 3.03775e-06)
(0.00351355 -1.06245e-06 2.74721e-06)
(0.0035033 -5.17134e-07 2.53286e-06)
(0.00349405 -9.86496e-08 2.34393e-06)
(0.00348578 1.96908e-07 2.12686e-06)
(0.00347861 3.69995e-07 1.85439e-06)
(0.00347265 4.2215e-07 1.52372e-06)
(0.00346803 3.60305e-07 1.15104e-06)
(0.00346476 1.9267e-07 7.68093e-07)
(0.00346281 -7.02612e-08 3.97606e-07)
(0.0034621 -3.9397e-07 4.9269e-08)
(0.00524119 -3.69858e-05 4.74244e-05)
(0.00506071 -3.35967e-05 4.22474e-05)
(0.00489988 -3.08308e-05 3.77014e-05)
(0.00475621 -2.85699e-05 3.37034e-05)
(0.00462751 -2.67211e-05 3.02148e-05)
(0.00451182 -2.51918e-05 2.71839e-05)
(0.00440751 -2.38852e-05 2.45246e-05)
(0.00431325 -2.27119e-05 2.21511e-05)
(0.00422798 -2.16037e-05 2.00087e-05)
(0.00415081 -2.05211e-05 1.80706e-05)
(0.00408095 -1.94538e-05 1.63309e-05)
(0.00401762 -1.841e-05 1.47967e-05)
(0.0039601 -1.7402e-05 1.34637e-05)
(0.0039077 -1.64386e-05 1.23014e-05)
(0.00385988 -1.55207e-05 1.12601e-05)
(0.00381622 -1.46421e-05 1.02959e-05)
(0.0037764 -1.37922e-05 9.39778e-06)
(0.00374009 -1.29488e-05 8.58075e-06)
(0.00370697 -1.20804e-05 7.8461e-06)
(0.00367677 -1.11693e-05 7.17381e-06)
(0.00364927 -1.02223e-05 6.54631e-06)
(0.00362429 -9.24769e-06 5.95008e-06)
(0.00360169 -8.23574e-06 5.37339e-06)
(0.00358133 -7.17304e-06 4.81976e-06)
(0.00356311 -6.06922e-06 4.30271e-06)
(0.00354686 -4.96796e-06 3.83198e-06)
(0.00353241 -3.93538e-06 3.4196e-06)
(0.00351954 -3.03572e-06 3.08013e-06)
(0.00350802 -2.30932e-06 2.81932e-06)
(0.00349762 -1.75932e-06 2.62042e-06)
(0.00348822 -1.35626e-06 2.44094e-06)
(0.00347981 -1.05972e-06 2.22947e-06)
(0.00347248 -8.36942e-07 1.95307e-06)
(0.00346639 -6.68707e-07 1.60923e-06)
(0.00346164 -5.49127e-07 1.22253e-06)
(0.00345827 -4.83182e-07 8.26277e-07)
(0.00345625 -4.76597e-07 4.32205e-07)
(0.00345551 -5.12799e-07 4.04784e-08)
(0.00522506 -5.05263e-05 4.63399e-05)
(0.00504424 -4.56452e-05 4.12391e-05)
(0.00488319 -4.15035e-05 3.67569e-05)
(0.00473938 -3.79726e-05 3.28086e-05)
(0.0046106 -3.49758e-05 2.93572e-05)
(0.00449491 -3.2433e-05 2.6357e-05)
(0.00439063 -3.02356e-05 2.37269e-05)
(0.00429644 -2.82714e-05 2.13831e-05)
(0.00421125 -2.64554e-05 1.92728e-05)
(0.00413417 -2.47447e-05 1.73707e-05)
(0.00406439 -2.31386e-05 1.56707e-05)
(0.00400112 -2.16595e-05 1.41764e-05)
(0.00394363 -2.03205e-05 1.28792e-05)
(0.00389125 -1.91078e-05 1.17479e-05)
(0.00384344 -1.79827e-05 1.07352e-05)
(0.00379978 -1.69026e-05 9.79517e-06)
(0.00375996 -1.58468e-05 8.91173e-06)
(0.00372367 -1.48112e-05 8.10174e-06)
(0.00369058 -1.37847e-05 7.37668e-06)
(0.00366041 -1.27487e-05 6.72291e-06)
(0.00363293 -1.16911e-05 6.12019e-06)
(0.00360797 -1.06026e-05 5.55167e-06)
(0.00358539 -9.47421e-06 5.00762e-06)
(0.00356508 -8.30884e-06 4.49595e-06)
(0.00354688 -7.13081e-06 4.03314e-06)
(0.00353062 -5.98778e-06 3.62842e-06)
(0.00351611 -4.94412e-06 3.28596e-06)
(0.00350312 -4.0626e-06 3.00636e-06)
(0.00349144 -3.37912e-06 2.78225e-06)
(0.00348087 -2.88733e-06 2.59757e-06)
(0.00347131 -2.5386e-06 2.4216e-06)
(0.00346274 -2.26151e-06 2.21016e-06)
(0.00345526 -1.99358e-06 1.93038e-06)
(0.00344903 -1.70543e-06 1.58292e-06)
(0.00344416 -1.40286e-06 1.19783e-06)
(0.00344069 -1.10646e-06 8.06016e-07)
(0.00343859 -8.26118e-07 4.11065e-07)
(0.00343783 -5.58919e-07 6.12189e-09)
(0.00516447 -5.58403e-05 4.08513e-05)
(0.00498408 -5.03139e-05 3.62787e-05)
(0.00482349 -4.55126e-05 3.22688e-05)
(0.00468016 -4.13201e-05 2.87458e-05)
(0.00455188 -3.7688e-05 2.56707e-05)
(0.00443667 -3.45631e-05 2.29982e-05)
(0.00433286 -3.18442e-05 2.06551e-05)
(0.0042391 -2.94144e-05 1.85688e-05)
(0.00415433 -2.71879e-05 1.66956e-05)
(0.00407763 -2.51275e-05 1.5016e-05)
(0.00400818 -2.32397e-05 1.35217e-05)
(0.0039452 -2.15498e-05 1.22057e-05)
(0.00388796 -2.00659e-05 1.10527e-05)
(0.00383581 -1.87602e-05 1.00382e-05)
(0.00378819 -1.75717e-05 9.13193e-06)
(0.00374471 -1.64316e-05 8.30054e-06)
(0.00370502 -1.53062e-05 7.52645e-06)
(0.00366884 -1.4203e-05 6.817e-06)
(0.00363586 -1.31338e-05 6.1812e-06)
(0.00360579 -1.20937e-05 5.61238e-06)
(0.00357841 -1.10694e-05 5.09713e-06)
(0.00355354 -1.0042e-05 4.62057e-06)
(0.00353106 -8.99509e-06 4.17079e-06)
(0.00351083 -7.93373e-06 3.75166e-06)
(0.00349272 -6.88917e-06 3.37881e-06)
(0.00347654 -5.90998e-06 3.06372e-06)
(0.00346205 -5.04908e-06 2.80757e-06)
(0.00344903 -4.34582e-06 2.59979e-06)
(0.00343725 -3.81379e-06 2.42272e-06)
(0.00342656 -3.4367e-06 2.26077e-06)
(0.00341684 -3.16325e-06 2.09482e-06)
(0.00340811 -2.9152e-06 1.89497e-06)
(0.00340046 -2.62217e-06 1.63752e-06)
(0.00339406 -2.25859e-06 1.32638e-06)
(0.00338903 -1.84357e-06 9.87674e-07)
(0.00338544 -1.40479e-06 6.45569e-07)
(0.00338327 -9.45924e-07 3.03678e-07)
(0.0033825 -4.67981e-07 -4.57186e-08)
(0.00483873 -3.3136e-05 2.8184e-05)
(0.00466438 -2.98409e-05 2.48585e-05)
(0.00450923 -2.69392e-05 2.197e-05)
(0.00437083 -2.43703e-05 1.94593e-05)
(0.00424703 -2.21175e-05 1.72876e-05)
(0.00413589 -2.01625e-05 1.54112e-05)
(0.00403575 -1.84524e-05 1.37733e-05)
(0.0039453 -1.69203e-05 1.23225e-05)
(0.00386352 -1.55193e-05 1.10283e-05)
(0.00378953 -1.42314e-05 9.87685e-06)
(0.00372255 -1.30618e-05 8.85885e-06)
(0.0036618 -1.20234e-05 7.96105e-06)
(0.00360658 -1.11179e-05 7.16571e-06)
(0.00355626 -1.03275e-05 6.45759e-06)
(0.00351031 -9.61598e-06 5.82557e-06)
(0.00346831 -8.93913e-06 5.25773e-06)
(0.00342996 -8.27236e-06 4.74438e-06)
(0.00339496 -7.62207e-06 4.28357e-06)
(0.00336306 -7.00211e-06 3.8743e-06)
(0.00333397 -6.41545e-06 3.5104e-06)
(0.00330748 -5.85698e-06 3.18337e-06)
(0.00328341 -5.31452e-06 2.88347e-06)
(0.00326165 -4.77371e-06 2.60313e-06)
(0.0032421 -4.23357e-06 2.34511e-06)
(0.00322463 -3.71115e-06 2.11987e-06)
(0.00320903 -3.23287e-06 1.93505e-06)
(0.00319507 -2.82394e-06 1.78908e-06)
(0.00318248 -2.4971e-06 1.67021e-06)
(0.00317105 -2.24955e-06 1.56199e-06)
(0.00316061 -2.06819e-06 1.45264e-06)
(0.00315105 -1.92683e-06 1.33325e-06)
(0.00314239 -1.78407e-06 1.1903e-06)
(0.00313475 -1.60122e-06 1.01211e-06)
(0.00312831 -1.36716e-06 8.01176e-07)
(0.00312324 -1.09909e-06 5.73717e-07)
(0.00311961 -8.15643e-07 3.4521e-07)
(0.00311742 -5.15014e-07 1.27169e-07)
(0.00311666 -1.93005e-07 -8.10085e-08)
(0.00558442 2.26406e-05 0.000107432)
(0.00537403 2.01254e-05 9.479e-05)
(0.00518747 1.80171e-05 8.39637e-05)
(0.00502134 1.62156e-05 7.46397e-05)
(0.00487288 1.46541e-05 6.65719e-05)
(0.00473978 1.32941e-05 5.95692e-05)
(0.00462008 1.21063e-05 5.34725e-05)
(0.00451212 1.10636e-05 4.8141e-05)
(0.00441449 1.01429e-05 4.34529e-05)
(0.00432602 9.32401e-06 3.93089e-05)
(0.00424569 8.58507e-06 3.56281e-05)
(0.00417267 7.90644e-06 3.23376e-05)
(0.00410625 7.27938e-06 2.93701e-05)
(0.0040458 6.70765e-06 2.66738e-05)
(0.00399076 6.19863e-06 2.42181e-05)
(0.00394061 5.75169e-06 2.19834e-05)
(0.00389486 5.35385e-06 1.99468e-05)
(0.00385313 4.98922e-06 1.8084e-05)
(0.00381505 4.6479e-06 1.6378e-05)
(0.00378036 4.31997e-06 1.48133e-05)
(0.00374879 3.99189e-06 1.3366e-05)
(0.00372016 3.65834e-06 1.20122e-05)
(0.00369429 3.32769e-06 1.0746e-05)
(0.00367101 3.01381e-06 9.5779e-06)
(0.00365013 2.7322e-06 8.51813e-06)
(0.00363142 2.49902e-06 7.56417e-06)
(0.00361467 2.32231e-06 6.70123e-06)
(0.00359966 2.19432e-06 5.91092e-06)
(0.00358624 2.09317e-06 5.17802e-06)
(0.00357428 1.99243e-06 4.49e-06)
(0.0035637 1.87143e-06 3.83641e-06)
(0.00355445 1.71562e-06 3.21184e-06)
(0.00354653 1.5154e-06 2.61783e-06)
(0.00353994 1.27203e-06 2.06283e-06)
(0.00353467 1.00221e-06 1.56071e-06)
(0.00353068 7.28107e-07 1.12087e-06)
(0.00352788 4.74594e-07 7.45217e-07)
(0.00352615 2.53355e-07 4.23115e-07)
(0.00585952 4.10166e-05 0.000140363)
(0.00564185 3.63312e-05 0.000124336)
(0.00544877 3.24166e-05 0.000110577)
(0.00527683 2.90983e-05 9.86793e-05)
(0.00512319 2.62493e-05 8.83395e-05)
(0.00498546 2.37848e-05 7.93271e-05)
(0.00486165 2.16411e-05 7.14464e-05)
(0.00475005 1.9764e-05 6.45266e-05)
(0.00464921 1.81055e-05 5.84267e-05)
(0.00455791 1.66219e-05 5.30292e-05)
(0.0044751 1.52747e-05 4.82216e-05)
(0.00439991 1.40369e-05 4.38973e-05)
(0.00433159 1.29011e-05 3.99762e-05)
(0.00426946 1.18761e-05 3.64127e-05)
(0.00421292 1.09734e-05 3.31791e-05)
(0.00416143 1.019e-05 3.02406e-05)
(0.00411449 9.50297e-06 2.75526e-05)
(0.00407169 8.88409e-06 2.50781e-05)
(0.00403267 8.31198e-06 2.27963e-05)
(0.00399714 7.76583e-06 2.06815e-05)
(0.00396482 7.22273e-06 1.86978e-05)
(0.0039355 6.67201e-06 1.68291e-05)
(0.00390896 6.12197e-06 1.50891e-05)
(0.00388502 5.59192e-06 1.34934e-05)
(0.00386347 5.10723e-06 1.20462e-05)
(0.00384412 4.69377e-06 1.07483e-05)
(0.00382679 4.3645e-06 9.59408e-06)
(0.0038113 4.111e-06 8.56115e-06)
(0.00379749 3.907e-06 7.60884e-06)
(0.00378523 3.71762e-06 6.69365e-06)
(0.00377444 3.50758e-06 5.79286e-06)
(0.00376503 3.24347e-06 4.90562e-06)
(0.00375698 2.89967e-06 4.03768e-06)
(0.00375026 2.47295e-06 3.20378e-06)
(0.00374483 1.9863e-06 2.42896e-06)
(0.00374068 1.47662e-06 1.73218e-06)
(0.00373772 9.87567e-07 1.12626e-06)
(0.00373588 5.43136e-07 6.09445e-07)
(0.00589652 4.16211e-05 0.000154766)
(0.00567864 3.67441e-05 0.000137226)
(0.00548526 3.26717e-05 0.000122196)
(0.00531298 2.92306e-05 0.00010922)
(0.005159 2.62891e-05 9.79484e-05)
(0.00502096 2.37521e-05 8.81102e-05)
(0.00489688 2.15469e-05 7.94855e-05)
(0.00478505 1.96118e-05 7.19014e-05)
(0.00468404 1.78918e-05 6.52165e-05)
(0.00459263 1.63399e-05 5.92924e-05)
(0.00450978 1.49226e-05 5.39861e-05)
(0.00443462 1.36241e-05 4.91797e-05)
(0.00436638 1.24459e-05 4.48079e-05)
(0.00430437 1.13998e-05 4.0846e-05)
(0.00424796 1.04972e-05 3.72761e-05)
(0.0041966 9.734e-06 3.4055e-05)
(0.0041498 9.08632e-06 3.11142e-05)
(0.00410714 8.52291e-06 2.83981e-05)
(0.00406826 8.01779e-06 2.58815e-05)
(0.00403285 7.54763e-06 2.35387e-05)
(0.00400066 7.08899e-06 2.13334e-05)
(0.00397143 6.62671e-06 1.92535e-05)
(0.00394496 6.15896e-06 1.73146e-05)
(0.00392103 5.69486e-06 1.55267e-05)
(0.00389947 5.25312e-06 1.38911e-05)
(0.00388009 4.85677e-06 1.24152e-05)
(0.00386274 4.52236e-06 1.11024e-05)
(0.00384725 4.25392e-06 9.93114e-06)
(0.00383347 4.0423e-06 8.85302e-06)
(0.00382126 3.86507e-06 7.82166e-06)
(0.00381052 3.68786e-06 6.81984e-06)
(0.00380117 3.46781e-06 5.84178e-06)
(0.00379315 3.16514e-06 4.87396e-06)
(0.00378643 2.76213e-06 3.9178e-06)
(0.00378099 2.27139e-06 3.00012e-06)
(0.0037768 1.72732e-06 2.15532e-06)
(0.0037738 1.17736e-06 1.41896e-06)
(0.00377193 6.56856e-07 7.9992e-07)
(0.0059004 3.37243e-05 0.000159333)
(0.00568308 2.96881e-05 0.000141299)
(0.00549009 2.62909e-05 0.00012588)
(0.00531809 2.33999e-05 0.00011259)
(0.00516432 2.09148e-05 0.000101055)
(0.00502646 1.87632e-05 9.09844e-05)
(0.00490253 1.68854e-05 8.21524e-05)
(0.00479085 1.5227e-05 7.43873e-05)
(0.00468999 1.37409e-05 6.75354e-05)
(0.00459873 1.23921e-05 6.14333e-05)
(0.00451606 1.11621e-05 5.59265e-05)
(0.0044411 1.00478e-05 5.09154e-05)
(0.00437308 9.05621e-06 4.63618e-05)
(0.00431131 8.19772e-06 4.22557e-05)
(0.00425513 7.47832e-06 3.85797e-05)
(0.00420399 6.89231e-06 3.52821e-05)
(0.00415739 6.42021e-06 3.22827e-05)
(0.00411492 6.03623e-06 2.95202e-05)
(0.00407622 5.7163e-06 2.69675e-05)
(0.00404097 5.43787e-06 2.45907e-05)
(0.00400891 5.17909e-06 2.23486e-05)
(0.00397979 4.92356e-06 2.0236e-05)
(0.0039534 4.66194e-06 1.82702e-05)
(0.00392954 4.39123e-06 1.6445e-05)
(0.00390801 4.1174e-06 1.4743e-05)
(0.00388866 3.8559e-06 1.31701e-05)
(0.00387135 3.62592e-06 1.17456e-05)
(0.00385591 3.44312e-06 1.04682e-05)
(0.00384219 3.31231e-06 9.30578e-06)
(0.00383005 3.2212e-06 8.22798e-06)
(0.00381936 3.13936e-06 7.22292e-06)
(0.00381003 3.02328e-06 6.26544e-06)
(0.00380201 2.82913e-06 5.31101e-06)
(0.00379527 2.53055e-06 4.34023e-06)
(0.00378978 2.12793e-06 3.37482e-06)
(0.00378555 1.64622e-06 2.45811e-06)
(0.00378253 1.12637e-06 1.64062e-06)
(0.00378067 6.11165e-07 9.41299e-07)
(0.00589895 2.14264e-05 0.000160125)
(0.00568209 1.87566e-05 0.000142012)
(0.00548946 1.64583e-05 0.000126528)
(0.00531773 1.44622e-05 0.000113174)
(0.00516419 1.27162e-05 0.000101583)
(0.00502652 1.11825e-05 9.14759e-05)
(0.00490275 9.82673e-06 8.26285e-05)
(0.00479121 8.61526e-06 7.48519e-05)
(0.00469048 7.52092e-06 6.79653e-05)
(0.00459936 6.5282e-06 6.1791e-05)
(0.00451685 5.63398e-06 5.61911e-05)
(0.00444206 4.84395e-06 5.10972e-05)
(0.00437422 4.16646e-06 4.64877e-05)
(0.00431263 3.60683e-06 4.23481e-05)
(0.00425663 3.16477e-06 3.86505e-05)
(0.00420566 2.83363e-06 3.53403e-05)
(0.00415922 2.60008e-06 3.23453e-05)
(0.00411688 2.44698e-06 2.9614e-05)
(0.0040783 2.35722e-06 2.71114e-05)
(0.00404315 2.31346e-06 2.47823e-05)
(0.00401118 2.2969e-06 2.25787e-05)
(0.00398213 2.29021e-06 2.05086e-05)
(0.00395578 2.27965e-06 1.85932e-05)
(0.00393193 2.25543e-06 1.68025e-05)
(0.00391042 2.21498e-06 1.509e-05)
(0.00389108 2.16558e-06 1.34549e-05)
(0.0038738 2.12232e-06 1.19363e-05)
(0.00385841 2.10208e-06 1.05658e-05)
(0.00384474 2.1142e-06 9.34622e-06)
(0.00383264 2.15272e-06 8.26783e-06)
(0.00382197 2.19404e-06 7.31229e-06)
(0.00381264 2.20096e-06 6.42435e-06)
(0.00380457 2.13374e-06 5.5301e-06)
(0.00379777 1.96543e-06 4.59438e-06)
(0.00379222 1.68989e-06 3.62977e-06)
(0.00378793 1.32225e-06 2.6761e-06)
(0.00378488 8.93392e-07 1.78811e-06)
(0.00378301 4.43598e-07 9.96978e-07)
(0.00568086 6.83699e-06 0.000141895)
(0.00548839 5.78307e-06 0.000126402)
(0.00531679 4.80043e-06 0.000113007)
(0.00516337 3.88783e-06 0.00010137)
(0.00502581 3.04439e-06 9.12411e-05)
(0.00490214 2.26828e-06 8.23963e-05)
(0.00479069 1.55667e-06 7.4618e-05)
(0.00469005 9.08777e-07 6.76995e-05)
(0.00459904 3.28647e-07 6.14682e-05)
(0.00451663 -1.74913e-07 5.58148e-05)
(0.00444197 -5.91632e-07 5.06939e-05)
(0.00437425 -9.15257e-07 4.60838e-05)
(0.00431278 -1.1469e-06 4.19555e-05)
(0.0042569 -1.29326e-06 3.82684e-05)
(0.00420604 -1.36228e-06 3.49672e-05)
(0.0041597 -1.36144e-06 3.19943e-05)
(0.00411746 -1.29731e-06 2.93103e-05)
(0.00407895 -1.17612e-06 2.68715e-05)
(0.00404387 -1.00726e-06 2.46033e-05)
(0.00401194 -8.05666e-07 2.24561e-05)
(0.00398292 -5.87443e-07 2.04493e-05)
(0.00395659 -3.64977e-07 1.8599e-05)
(0.00393274 -1.46946e-07 1.6855e-05)
(0.00391122 6.12425e-08 1.51535e-05)
(0.00389189 2.58321e-07 1.34904e-05)
(0.00387461 4.47023e-07 1.19175e-05)
(0.00385924 6.32417e-07 1.04942e-05)
(0.0038456 8.17051e-07 9.25644e-06)
(0.00383351 9.95276e-07 8.21125e-06)
(0.00382283 1.1515e-06 7.32479e-06)
(0.00381345 1.26121e-06 6.51285e-06)
(0.00380532 1.29789e-06 5.68381e-06)
(0.00379844 1.24416e-06 4.79365e-06)
(0.0037928 1.09542e-06 3.84379e-06)
(0.00378845 8.59447e-07 2.86418e-06)
(0.00378534 5.54804e-07 1.90971e-06)
(0.00378346 2.10476e-07 1.02482e-06)
(0.0056805 -5.55442e-06 0.000142169)
(0.00548796 -5.28444e-06 0.000126604)
(0.00531633 -5.16741e-06 0.000113098)
(0.00516289 -5.1636e-06 0.000101345)
(0.00502534 -5.24226e-06 9.11233e-05)
(0.00490169 -5.37328e-06 8.22088e-05)
(0.00479027 -5.52565e-06 7.43636e-05)
(0.00468968 -5.67178e-06 6.73698e-05)
(0.00459872 -5.78914e-06 6.10679e-05)
(0.00451639 -5.85975e-06 5.53674e-05)
(0.0044418 -5.87236e-06 5.02281e-05)
(0.00437417 -5.82513e-06 4.56249e-05)
(0.00431277 -5.72448e-06 4.15211e-05)
(0.00425696 -5.57966e-06 3.7863e-05)
(0.00420615 -5.39644e-06 3.45853e-05)
(0.00415986 -5.17473e-06 3.16316e-05)
(0.00411767 -4.91071e-06 2.89685e-05)
(0.00407921 -4.60064e-06 2.65567e-05)
(0.00404416 -4.24611e-06 2.4326e-05)
(0.00401226 -3.85609e-06 2.22288e-05)
(0.00398325 -3.44129e-06 2.0274e-05)
(0.00395692 -3.00853e-06 1.84624e-05)
(0.00393307 -2.56226e-06 1.67405e-05)
(0.00391155 -2.10897e-06 1.50544e-05)
(0.0038922 -1.65927e-06 1.34042e-05)
(0.00387491 -1.22774e-06 1.18385e-05)
(0.00385953 -8.29305e-07 1.04231e-05)
(0.00384586 -4.75501e-07 9.21088e-06)
(0.00383375 -1.74211e-07 8.21596e-06)
(0.00382302 6.8352e-08 7.39301e-06)
(0.00381358 2.45768e-07 6.64231e-06)
(0.00380537 3.53578e-07 5.86467e-06)
(0.00379839 3.92166e-07 5.00865e-06)
(0.00379267 3.63887e-07 4.06591e-06)
(0.00378823 2.71168e-07 3.06129e-06)
(0.00378507 1.19438e-07 2.05062e-06)
(0.00378315 -7.65433e-08 1.08522e-06)
(0.00568101 -1.77698e-05 0.000142715)
(0.0054882 -1.61622e-05 0.000127039)
(0.00531637 -1.49031e-05 0.000113391)
(0.00516278 -1.39256e-05 0.000101484)
(0.00502513 -1.318e-05 9.11158e-05)
(0.00490142 -1.26119e-05 8.20738e-05)
(0.00478997 -1.2159e-05 7.41172e-05)
(0.00468937 -1.17652e-05 6.70283e-05)
(0.00459842 -1.1389e-05 6.06549e-05)
(0.00451612 -1.10055e-05 5.49085e-05)
(0.00444156 -1.06072e-05 4.97477e-05)
(0.00437396 -1.01994e-05 4.51505e-05)
(0.00431259 -9.79028e-06 4.10804e-05)
(0.00425678 -9.38423e-06 3.7469e-05)
(0.00420597 -8.97676e-06 3.42286e-05)
(0.00415968 -8.55634e-06 3.12868e-05)
(0.00411751 -8.1116e-06 2.86123e-05)
(0.00407906 -7.63476e-06 2.61876e-05)
(0.00404403 -7.12193e-06 2.39681e-05)
(0.00401214 -6.57343e-06 2.1906e-05)
(0.00398312 -5.99094e-06 1.99837e-05)
(0.00395679 -5.3741e-06 1.81826e-05)
(0.00393294 -4.72445e-06 1.64642e-05)
(0.0039114 -4.05179e-06 1.48042e-05)
(0.00389204 -3.37742e-06 1.32111e-05)
(0.00387471 -2.73374e-06 1.1718e-05)
(0.00385928 -2.15598e-06 1.03749e-05)
(0.00384555 -1.66988e-06 9.23001e-06)
(0.00383336 -1.28576e-06 8.29574e-06)
(0.00382255 -9.9945e-07 7.52522e-06)
(0.00381301 -7.95705e-07 6.81991e-06)
(0.0038047 -6.51526e-07 6.07726e-06)
(0.00379762 -5.43636e-07 5.23658e-06)
(0.00379181 -4.60124e-07 4.2855e-06)
(0.00378728 -4.03464e-07 3.25429e-06)
(0.00378405 -3.80351e-07 2.20006e-06)
(0.00378209 -3.91392e-07 1.16635e-06)
(0.00378135 -4.28091e-07 1.76973e-07)
(0.00568128 -2.91781e-05 0.000142182)
(0.00548803 -2.62985e-05 0.000126499)
(0.00531585 -2.39192e-05 0.000112813)
(0.00516201 -2.19591e-05 0.000100841)
(0.00502416 -2.03653e-05 9.03973e-05)
(0.00490031 -1.90717e-05 8.1286e-05)
(0.00478877 -1.79908e-05 7.32752e-05)
(0.00468811 -1.70389e-05 6.61504e-05)
(0.00459713 -1.61565e-05 5.97601e-05)
(0.0045148 -1.53161e-05 5.40133e-05)
(0.00444023 -1.4519e-05 4.88686e-05)
(0.0043726 -1.37781e-05 4.43087e-05)
(0.00431119 -1.30989e-05 4.02959e-05)
(0.00425535 -1.24731e-05 3.67498e-05)
(0.0042045 -1.18774e-05 3.35639e-05)
(0.00415818 -1.12841e-05 3.06472e-05)
(0.00411597 -1.06762e-05 2.79669e-05)
(0.0040775 -1.00483e-05 2.55289e-05)
(0.00404244 -9.39585e-06 2.33173e-05)
(0.00401052 -8.71254e-06 2.12867e-05)
(0.00398148 -7.99104e-06 1.9397e-05)
(0.00395512 -7.22349e-06 1.76171e-05)
(0.00393125 -6.40969e-06 1.59248e-05)
(0.0039097 -5.56537e-06 1.43216e-05)
(0.0038903 -4.72412e-06 1.28243e-05)
(0.00387293 -3.93412e-06 1.14522e-05)
(0.00385741 -3.24511e-06 1.02323e-05)
(0.00384359 -2.69089e-06 9.19114e-06)
(0.00383128 -2.28106e-06 8.32994e-06)